 Gaussian 09, Revision C.01,
 Gaussian 09:  EM64L-G09RevC.01 23-Sep-2011

 ----------------------------------------
 #p HF/6-31+g* sp nosymm pop=chelpg polar
 ----------------------------------------

 (Enter /apps/gaussian/g09_c01/g09/l101.exe)
 --------------
 6-31+g* HF c60
 --------------
 Charge =  0 Multiplicity = 1

                          Input orientation:
 ---------------------------------------------------------------------
 Center     Atomic      Atomic             Coordinates (Angstroms)
 Number     Number       Type             X           Y           Z
 ---------------------------------------------------------------------
      1          6           0       -1.183084   -0.375487    3.328905
      2          6           0       -0.735677    1.007272    3.328108
      3          6           0       -1.434892    1.966637    2.594433
      4          6           0       -2.610109    1.582561    1.830306
      5          6           0       -3.039672    0.254940    1.830874
      6          6           0       -2.311232   -0.743884    2.594819
      7          6           0       -0.006254   -1.228403    3.328730
      8          6           0        1.168576   -0.372790    3.328439
      9          6           0        0.717738    1.008786    3.327303
     10          6           0        1.413998    1.969851    2.593466
     11          6           0       -0.709566    2.967521    1.829811
     12          6           0       -2.611039    2.346024    0.593680
     13          6           0       -3.042649    1.751939   -0.593033
     14          6           0       -3.489920    0.369054   -0.592448
     15          6           0       -3.488569   -0.364292    0.594937
     16          6           0       -3.037175   -1.745546    0.595360
     17          6           0       -2.310372   -1.980726    1.831852
     18          6           0       -1.180424   -2.799545    1.831899
     19          6           0       -0.005016   -2.415712    2.595573
     20          6           0        2.298111   -0.738574    2.594890
     21          6           0        2.299406   -1.975018    1.831037
     22          6           0        1.171298   -2.796588    1.831496
     23          6           0        0.722526   -3.415778    0.595431
     24          6           0       -0.730838   -3.417325    0.595460
     25          6           0       -1.428803   -3.191500   -0.591450
     26          6           0       -2.605842   -2.338923   -0.591594
     27          6           0       -2.607544   -1.575606   -1.828355
     28          6           0       -3.040341   -0.248880   -1.828693
     29          6           0       -1.436603    3.201837    0.593195
     30          6           0       -0.010872    1.242029   -3.327394
     31          6           0       -0.012165    2.429274   -2.594272
     32          6           0        1.163404    2.813241   -1.830631
     33          6           0        2.293224    1.994305   -1.830425
     34          6           0        2.294399    0.757597   -2.593912
     35          6           0        0.718649   -0.993630   -3.326880
     36          6           0       -0.734790   -0.995229   -3.326095
     37          6           0       -1.185691    0.386441   -3.327155
     38          6           0       -2.315152    0.752209   -2.593552
     39          6           0       -2.316573    1.988645   -1.829705
     40          6           0       -1.188353    2.810197   -1.830112
     41          6           0        0.713835    3.430892   -0.594233
     42          6           0        1.411825    3.205122    0.592746
     43          6           0        2.588631    2.352553    0.592822
     44          6           0        3.019997    1.759304   -0.594108
     45          6           0        3.471388    0.377834   -0.593641
     46          6           0        3.022737   -0.241286   -1.829704
     47          6           0        2.593075   -1.568924   -1.828962
     48          6           0        1.417817   -1.952966   -2.593140
     49          6           0       -1.431029   -1.956099   -2.592097
     50          6           0       -0.702978   -2.955445   -1.828228
     51          6           0        0.692547   -2.953837   -1.828438
     52          6           0        1.419554   -3.188302   -0.591922
     53          6           0        2.594057   -2.332371   -0.592419
     54          6           0        3.025443   -1.738260    0.594280
     55          6           0        3.472778   -0.355411    0.593729
     56          6           0        3.023205    0.262546    1.830052
     57          6           0        2.590402    1.589225    1.829757
     58          6           0       -0.739566    3.429395   -0.594195
     59          6           0        0.685939    2.969155    1.829610
     60          6           0        1.166036    0.389073   -3.327434
 ---------------------------------------------------------------------

 SCF Done:  E(RHF) =  -2271.85725047     A.U. after   18 cycles

 Alpha  occ. eigenvalues --  -11.29976 -11.29968 -11.29966 -11.29965 -11.29948
 Alpha  occ. eigenvalues --  -11.29947 -11.29946 -11.29945 -11.29945 -11.29920
 Alpha  occ. eigenvalues --  -11.29920 -11.29919 -11.29919 -11.29918 -11.29917
 Alpha  occ. eigenvalues --  -11.29917 -11.29892 -11.29892 -11.29892 -11.29891
 Alpha  occ. eigenvalues --  -11.29887 -11.29886 -11.29886 -11.29885 -11.29885
 Alpha  occ. eigenvalues --  -11.29874 -11.29873 -11.29873 -11.29873 -11.29872
 Alpha  occ. eigenvalues --  -11.29813 -11.29813 -11.29812 -11.29803 -11.29802
 Alpha  occ. eigenvalues --  -11.29801 -11.29774 -11.29773 -11.29773 -11.29772
 Alpha  occ. eigenvalues --  -11.29771 -11.29765 -11.29765 -11.29764 -11.29755
 Alpha  occ. eigenvalues --  -11.29754 -11.29754 -11.29754 -11.29753 -11.29735
 Alpha  occ. eigenvalues --  -11.29734 -11.29733 -11.29732 -11.29707 -11.29705
 Alpha  occ. eigenvalues --  -11.29705 -11.29704 -11.29703 -11.29702 -11.29701
 Alpha  occ. eigenvalues --   -1.30382  -1.27907  -1.27906  -1.27903  -1.23125
 Alpha  occ. eigenvalues --   -1.23124  -1.23123  -1.23122  -1.23120  -1.17988
 Alpha  occ. eigenvalues --   -1.17986  -1.17986  -1.14152  -1.14149  -1.14149
 Alpha  occ. eigenvalues --   -1.14148  -1.07581  -1.07580  -1.07580  -1.07579
 Alpha  occ. eigenvalues --   -1.07577  -1.05718  -1.05716  -1.05716  -1.05714
 Alpha  occ. eigenvalues --   -0.98891  -0.98888  -0.98887  -0.98886  -0.98885
 Alpha  occ. eigenvalues --   -0.95925  -0.95924  -0.95923  -0.89952  -0.89951
 Alpha  occ. eigenvalues --   -0.89949  -0.86226  -0.86222  -0.86220  -0.85965
 Alpha  occ. eigenvalues --   -0.85963  -0.85961  -0.85960  -0.85959  -0.80799
 Alpha  occ. eigenvalues --   -0.76346  -0.76345  -0.76344  -0.76342  -0.74285
 Alpha  occ. eigenvalues --   -0.74285  -0.74284  -0.74282  -0.74282  -0.71297
 Alpha  occ. eigenvalues --   -0.71296  -0.71294  -0.67655  -0.67654  -0.67654
 Alpha  occ. eigenvalues --   -0.65589  -0.64827  -0.64825  -0.64825  -0.64823
 Alpha  occ. eigenvalues --   -0.62632  -0.62632  -0.62631  -0.62629  -0.62627
 Alpha  occ. eigenvalues --   -0.62440  -0.62438  -0.62436  -0.61100  -0.61100
 Alpha  occ. eigenvalues --   -0.61100  -0.61097  -0.59564  -0.59563  -0.59562
 Alpha  occ. eigenvalues --   -0.57476  -0.57475  -0.57473  -0.57472  -0.56339
 Alpha  occ. eigenvalues --   -0.56339  -0.56337  -0.56337  -0.56336  -0.51761
 Alpha  occ. eigenvalues --   -0.51758  -0.51756  -0.51756  -0.51755  -0.50475
 Alpha  occ. eigenvalues --   -0.50474  -0.50473  -0.50472  -0.50469  -0.48137
 Alpha  occ. eigenvalues --   -0.48136  -0.48135  -0.46407  -0.46406  -0.46404
 Alpha  occ. eigenvalues --   -0.46404  -0.36569  -0.36568  -0.36567  -0.36565
 Alpha  occ. eigenvalues --   -0.35614  -0.35613  -0.35612  -0.35610  -0.35609
 Alpha  occ. eigenvalues --   -0.29100  -0.29099  -0.29097  -0.29095  -0.29093
 Alpha virt. eigenvalues --   -0.03280  -0.03275  -0.03272   0.03021   0.03024
 Alpha virt. eigenvalues --    0.03033   0.07409   0.07411   0.07415   0.07732
 Alpha virt. eigenvalues --    0.07939   0.07942   0.07942   0.07946   0.07949

 Mulliken atomic charges:
              1
     1  C    0.002129
     2  C   -0.001739
     3  C   -0.006334
     4  C    0.002682
     5  C    0.002647
     6  C   -0.002450
     7  C    0.000917
     8  C    0.002186
     9  C    0.000250
    10  C    0.001089
    11  C   -0.002465
    12  C    0.002083
    13  C    0.005878
    14  C    0.000349
    15  C    0.001937
    16  C   -0.004342
    17  C   -0.000046
    18  C    0.000625
    19  C   -0.000391
    20  C    0.001062
    21  C   -0.003444
    22  C   -0.000957
    23  C    0.001960
    24  C   -0.000168
    25  C    0.003403
    26  C   -0.002089
    27  C    0.001082
    28  C   -0.004102
    29  C   -0.001149
    30  C   -0.000164
    31  C   -0.000817
    32  C    0.000374
    33  C   -0.001473
    34  C   -0.000149
    35  C    0.001178
    36  C    0.000152
    37  C   -0.000604
    38  C   -0.001613
    39  C   -0.002406
    40  C   -0.000231
    41  C   -0.001098
    42  C    0.001915
    43  C   -0.001161
    44  C   -0.002673
    45  C    0.001187
    46  C    0.001684
    47  C    0.001354
    48  C   -0.003032
    49  C    0.000865
    50  C    0.001474
    51  C    0.000185
    52  C   -0.002183
    53  C   -0.000985
    54  C    0.001932
    55  C   -0.000215
    56  C   -0.001590
    57  C    0.003264
    58  C    0.003695
    59  C   -0.001205
    60  C    0.001740
 Sum of Mulliken atomic charges =   0.00000

 Dipole moment (field-independent basis, Debye):
    X=             -0.0002    Y=             -0.0004    Z=              0.0000  Tot=              0.0004
 Quadrupole moment (field-independent basis, Debye-Ang):
   XX=           -346.0598   YY=           -346.0577   ZZ=           -346.0522
   XY=              0.0056   XZ=             -0.0024   YZ=              0.0009

  Exact polarizability: 525.053  -0.016 525.062   0.044  -0.020 525.079
 Approx polarizability: 764.705  -0.004 764.759   0.061  -0.023 764.745

 Normal termination of Gaussian 09 at Wed Feb 12 12:32:17 2014.
