 Gaussian 09, Revision C.01,
 Gaussian 09:  EM64L-G09RevC.01 23-Sep-2011

 -----------------------------------------------
 #p CAM-B3LYP/6-31+g* sp nosymm pop=chelpg polar
 -----------------------------------------------

 (Enter /apps/gaussian/g09_c01/g09/l101.exe)
 ---------------------
 6-31+g* CAM-B3LYP c60
 ---------------------
 Charge =  0 Multiplicity = 1

                          Input orientation:
 ---------------------------------------------------------------------
 Center     Atomic      Atomic             Coordinates (Angstroms)
 Number     Number       Type             X           Y           Z
 ---------------------------------------------------------------------
      1          6           0       -1.183084   -0.375487    3.328905
      2          6           0       -0.735677    1.007272    3.328108
      3          6           0       -1.434892    1.966637    2.594433
      4          6           0       -2.610109    1.582561    1.830306
      5          6           0       -3.039672    0.254940    1.830874
      6          6           0       -2.311232   -0.743884    2.594819
      7          6           0       -0.006254   -1.228403    3.328730
      8          6           0        1.168576   -0.372790    3.328439
      9          6           0        0.717738    1.008786    3.327303
     10          6           0        1.413998    1.969851    2.593466
     11          6           0       -0.709566    2.967521    1.829811
     12          6           0       -2.611039    2.346024    0.593680
     13          6           0       -3.042649    1.751939   -0.593033
     14          6           0       -3.489920    0.369054   -0.592448
     15          6           0       -3.488569   -0.364292    0.594937
     16          6           0       -3.037175   -1.745546    0.595360
     17          6           0       -2.310372   -1.980726    1.831852
     18          6           0       -1.180424   -2.799545    1.831899
     19          6           0       -0.005016   -2.415712    2.595573
     20          6           0        2.298111   -0.738574    2.594890
     21          6           0        2.299406   -1.975018    1.831037
     22          6           0        1.171298   -2.796588    1.831496
     23          6           0        0.722526   -3.415778    0.595431
     24          6           0       -0.730838   -3.417325    0.595460
     25          6           0       -1.428803   -3.191500   -0.591450
     26          6           0       -2.605842   -2.338923   -0.591594
     27          6           0       -2.607544   -1.575606   -1.828355
     28          6           0       -3.040341   -0.248880   -1.828693
     29          6           0       -1.436603    3.201837    0.593195
     30          6           0       -0.010872    1.242029   -3.327394
     31          6           0       -0.012165    2.429274   -2.594272
     32          6           0        1.163404    2.813241   -1.830631
     33          6           0        2.293224    1.994305   -1.830425
     34          6           0        2.294399    0.757597   -2.593912
     35          6           0        0.718649   -0.993630   -3.326880
     36          6           0       -0.734790   -0.995229   -3.326095
     37          6           0       -1.185691    0.386441   -3.327155
     38          6           0       -2.315152    0.752209   -2.593552
     39          6           0       -2.316573    1.988645   -1.829705
     40          6           0       -1.188353    2.810197   -1.830112
     41          6           0        0.713835    3.430892   -0.594233
     42          6           0        1.411825    3.205122    0.592746
     43          6           0        2.588631    2.352553    0.592822
     44          6           0        3.019997    1.759304   -0.594108
     45          6           0        3.471388    0.377834   -0.593641
     46          6           0        3.022737   -0.241286   -1.829704
     47          6           0        2.593075   -1.568924   -1.828962
     48          6           0        1.417817   -1.952966   -2.593140
     49          6           0       -1.431029   -1.956099   -2.592097
     50          6           0       -0.702978   -2.955445   -1.828228
     51          6           0        0.692547   -2.953837   -1.828438
     52          6           0        1.419554   -3.188302   -0.591922
     53          6           0        2.594057   -2.332371   -0.592419
     54          6           0        3.025443   -1.738260    0.594280
     55          6           0        3.472778   -0.355411    0.593729
     56          6           0        3.023205    0.262546    1.830052
     57          6           0        2.590402    1.589225    1.829757
     58          6           0       -0.739566    3.429395   -0.594195
     59          6           0        0.685939    2.969155    1.829610
     60          6           0        1.166036    0.389073   -3.327434
 ---------------------------------------------------------------------

 SCF Done:  E(RCAM-B3LYP) =  -2284.98933382     A.U. after   15 cycles

 Alpha  occ. eigenvalues --  -10.32114 -10.32111 -10.32109 -10.32109 -10.32103
 Alpha  occ. eigenvalues --  -10.32103 -10.32102 -10.32101 -10.32101 -10.32092
 Alpha  occ. eigenvalues --  -10.32092 -10.32091 -10.32089 -10.32089 -10.32089
 Alpha  occ. eigenvalues --  -10.32088 -10.32080 -10.32080 -10.32079 -10.32078
 Alpha  occ. eigenvalues --  -10.32076 -10.32076 -10.32076 -10.32075 -10.32075
 Alpha  occ. eigenvalues --  -10.32072 -10.32071 -10.32071 -10.32071 -10.32070
 Alpha  occ. eigenvalues --  -10.32040 -10.32039 -10.32039 -10.32036 -10.32036
 Alpha  occ. eigenvalues --  -10.32035 -10.32025 -10.32025 -10.32024 -10.32024
 Alpha  occ. eigenvalues --  -10.32023 -10.32021 -10.32021 -10.32020 -10.32017
 Alpha  occ. eigenvalues --  -10.32017 -10.32017 -10.32016 -10.32016 -10.32008
 Alpha  occ. eigenvalues --  -10.32008 -10.32007 -10.32007 -10.31997 -10.31996
 Alpha  occ. eigenvalues --  -10.31996 -10.31995 -10.31995 -10.31994 -10.31994
 Alpha  occ. eigenvalues --   -1.07032  -1.05014  -1.05013  -1.05011  -1.01130
 Alpha  occ. eigenvalues --   -1.01130  -1.01128  -1.01128  -1.01126  -0.97017
 Alpha  occ. eigenvalues --   -0.97015  -0.97014  -0.93755  -0.93753  -0.93753
 Alpha  occ. eigenvalues --   -0.93751  -0.88516  -0.88516  -0.88515  -0.88515
 Alpha  occ. eigenvalues --   -0.88513  -0.86784  -0.86782  -0.86782  -0.86780
 Alpha  occ. eigenvalues --   -0.80909  -0.80907  -0.80906  -0.80905  -0.80904
 Alpha  occ. eigenvalues --   -0.79474  -0.79473  -0.79471  -0.75059  -0.75058
 Alpha  occ. eigenvalues --   -0.75057  -0.71163  -0.71162  -0.71160  -0.71159
 Alpha  occ. eigenvalues --   -0.71158  -0.70883  -0.70881  -0.70879  -0.68266
 Alpha  occ. eigenvalues --   -0.63978  -0.63976  -0.63976  -0.63974  -0.61391
 Alpha  occ. eigenvalues --   -0.61391  -0.61390  -0.61388  -0.61388  -0.59721
 Alpha  occ. eigenvalues --   -0.59720  -0.59718  -0.57035  -0.57034  -0.57034
 Alpha  occ. eigenvalues --   -0.57001  -0.54451  -0.54449  -0.54449  -0.54409
 Alpha  occ. eigenvalues --   -0.54407  -0.54407  -0.54406  -0.52392  -0.52392
 Alpha  occ. eigenvalues --   -0.52391  -0.52389  -0.52388  -0.50960  -0.50960
 Alpha  occ. eigenvalues --   -0.50959  -0.50957  -0.49779  -0.49779  -0.49778
 Alpha  occ. eigenvalues --   -0.49538  -0.49538  -0.49537  -0.49536  -0.49535
 Alpha  occ. eigenvalues --   -0.47856  -0.47854  -0.47853  -0.47852  -0.43360
 Alpha  occ. eigenvalues --   -0.43357  -0.43356  -0.43355  -0.43354  -0.43292
 Alpha  occ. eigenvalues --   -0.43291  -0.43291  -0.42173  -0.42172  -0.42172
 Alpha  occ. eigenvalues --   -0.42171  -0.42168  -0.41412  -0.41412  -0.41410
 Alpha  occ. eigenvalues --   -0.41410  -0.33631  -0.33630  -0.33630  -0.33628
 Alpha  occ. eigenvalues --   -0.33249  -0.33247  -0.33247  -0.33245  -0.33244
 Alpha  occ. eigenvalues --   -0.27822  -0.27821  -0.27819  -0.27818  -0.27816
 Alpha virt. eigenvalues --   -0.10114  -0.10110  -0.10108  -0.05132  -0.05128
 Alpha virt. eigenvalues --   -0.05121  -0.00765  -0.00763  -0.00759  -0.00363
 Alpha virt. eigenvalues --   -0.00360  -0.00360  -0.00356  -0.00354   0.02232

 Mulliken atomic charges:
              1
     1  C    0.006388
     2  C   -0.002973
     3  C   -0.006407
     4  C    0.002533
     5  C    0.004024
     6  C   -0.007320
     7  C   -0.001449
     8  C    0.003645
     9  C    0.000850
    10  C   -0.000495
    11  C   -0.002723
    12  C    0.001478
    13  C    0.008212
    14  C   -0.000276
    15  C    0.004077
    16  C   -0.007370
    17  C    0.003256
    18  C   -0.001801
    19  C    0.000879
    20  C    0.001466
    21  C   -0.004847
    22  C   -0.001315
    23  C    0.002389
    24  C    0.001087
    25  C    0.002310
    26  C   -0.001532
    27  C    0.002066
    28  C   -0.005499
    29  C   -0.001042
    30  C   -0.001589
    31  C   -0.000940
    32  C   -0.000075
    33  C   -0.000607
    34  C   -0.002440
    35  C    0.001444
    36  C    0.001028
    37  C    0.000093
    38  C   -0.001997
    39  C   -0.003303
    40  C   -0.000451
    41  C   -0.001106
    42  C    0.001586
    43  C   -0.001408
    44  C   -0.004095
    45  C    0.002170
    46  C    0.002579
    47  C    0.001173
    48  C   -0.002968
    49  C   -0.001109
    50  C    0.003082
    51  C    0.000224
    52  C   -0.002059
    53  C   -0.002008
    54  C    0.002841
    55  C   -0.000108
    56  C   -0.002573
    57  C    0.005055
    58  C    0.004774
    59  C   -0.000766
    60  C    0.003940
 Sum of Mulliken atomic charges =   0.00000

 Dipole moment (field-independent basis, Debye):
    X=             -0.0002    Y=             -0.0003    Z=              0.0001  Tot=              0.0004
 Quadrupole moment (field-independent basis, Debye-Ang):
   XX=           -336.8077   YY=           -336.8063   ZZ=           -336.8032
   XY=              0.0056   XZ=             -0.0027   YZ=             -0.0028

  Exact polarizability: 532.872  -0.016 532.905   0.043  -0.031 532.908
 Approx polarizability:1038.534  -0.0091038.619   0.092  -0.0361038.597

 Normal termination of Gaussian 09 at Wed Feb 12 17:59:39 2014.
