 Gaussian 09, Revision C.01,
 Gaussian 09:  EM64L-G09RevC.01 23-Sep-2011

 ----------------------------------------------
 #p CAM-B3LYP/6-31g* sp nosymm pop=chelpg polar
 ----------------------------------------------

 (Enter /apps/gaussian/g09_c01/g09/l101.exe)
 --------------------
 6-31g* CAM-B3LYP c60
 --------------------
 Charge =  0 Multiplicity = 1

                          Input orientation:
 ---------------------------------------------------------------------
 Center     Atomic      Atomic             Coordinates (Angstroms)
 Number     Number       Type             X           Y           Z
 ---------------------------------------------------------------------
      1          6           0       -1.183084   -0.375487    3.328905
      2          6           0       -0.735677    1.007272    3.328108
      3          6           0       -1.434892    1.966637    2.594433
      4          6           0       -2.610109    1.582561    1.830306
      5          6           0       -3.039672    0.254940    1.830874
      6          6           0       -2.311232   -0.743884    2.594819
      7          6           0       -0.006254   -1.228403    3.328730
      8          6           0        1.168576   -0.372790    3.328439
      9          6           0        0.717738    1.008786    3.327303
     10          6           0        1.413998    1.969851    2.593466
     11          6           0       -0.709566    2.967521    1.829811
     12          6           0       -2.611039    2.346024    0.593680
     13          6           0       -3.042649    1.751939   -0.593033
     14          6           0       -3.489920    0.369054   -0.592448
     15          6           0       -3.488569   -0.364292    0.594937
     16          6           0       -3.037175   -1.745546    0.595360
     17          6           0       -2.310372   -1.980726    1.831852
     18          6           0       -1.180424   -2.799545    1.831899
     19          6           0       -0.005016   -2.415712    2.595573
     20          6           0        2.298111   -0.738574    2.594890
     21          6           0        2.299406   -1.975018    1.831037
     22          6           0        1.171298   -2.796588    1.831496
     23          6           0        0.722526   -3.415778    0.595431
     24          6           0       -0.730838   -3.417325    0.595460
     25          6           0       -1.428803   -3.191500   -0.591450
     26          6           0       -2.605842   -2.338923   -0.591594
     27          6           0       -2.607544   -1.575606   -1.828355
     28          6           0       -3.040341   -0.248880   -1.828693
     29          6           0       -1.436603    3.201837    0.593195
     30          6           0       -0.010872    1.242029   -3.327394
     31          6           0       -0.012165    2.429274   -2.594272
     32          6           0        1.163404    2.813241   -1.830631
     33          6           0        2.293224    1.994305   -1.830425
     34          6           0        2.294399    0.757597   -2.593912
     35          6           0        0.718649   -0.993630   -3.326880
     36          6           0       -0.734790   -0.995229   -3.326095
     37          6           0       -1.185691    0.386441   -3.327155
     38          6           0       -2.315152    0.752209   -2.593552
     39          6           0       -2.316573    1.988645   -1.829705
     40          6           0       -1.188353    2.810197   -1.830112
     41          6           0        0.713835    3.430892   -0.594233
     42          6           0        1.411825    3.205122    0.592746
     43          6           0        2.588631    2.352553    0.592822
     44          6           0        3.019997    1.759304   -0.594108
     45          6           0        3.471388    0.377834   -0.593641
     46          6           0        3.022737   -0.241286   -1.829704
     47          6           0        2.593075   -1.568924   -1.828962
     48          6           0        1.417817   -1.952966   -2.593140
     49          6           0       -1.431029   -1.956099   -2.592097
     50          6           0       -0.702978   -2.955445   -1.828228
     51          6           0        0.692547   -2.953837   -1.828438
     52          6           0        1.419554   -3.188302   -0.591922
     53          6           0        2.594057   -2.332371   -0.592419
     54          6           0        3.025443   -1.738260    0.594280
     55          6           0        3.472778   -0.355411    0.593729
     56          6           0        3.023205    0.262546    1.830052
     57          6           0        2.590402    1.589225    1.829757
     58          6           0       -0.739566    3.429395   -0.594195
     59          6           0        0.685939    2.969155    1.829610
     60          6           0        1.166036    0.389073   -3.327434
 ---------------------------------------------------------------------

 SCF Done:  E(RCAM-B3LYP) =  -2284.94143021     A.U. after   13 cycles

 Alpha  occ. eigenvalues --  -10.30591 -10.30588 -10.30586 -10.30585 -10.30579
 Alpha  occ. eigenvalues --  -10.30578 -10.30578 -10.30577 -10.30576 -10.30568
 Alpha  occ. eigenvalues --  -10.30568 -10.30567 -10.30566 -10.30566 -10.30565
 Alpha  occ. eigenvalues --  -10.30564 -10.30557 -10.30557 -10.30557 -10.30556
 Alpha  occ. eigenvalues --  -10.30554 -10.30554 -10.30553 -10.30553 -10.30552
 Alpha  occ. eigenvalues --  -10.30550 -10.30550 -10.30549 -10.30549 -10.30548
 Alpha  occ. eigenvalues --  -10.30519 -10.30518 -10.30518 -10.30515 -10.30515
 Alpha  occ. eigenvalues --  -10.30514 -10.30504 -10.30504 -10.30503 -10.30503
 Alpha  occ. eigenvalues --  -10.30502 -10.30500 -10.30500 -10.30499 -10.30497
 Alpha  occ. eigenvalues --  -10.30496 -10.30496 -10.30495 -10.30495 -10.30487
 Alpha  occ. eigenvalues --  -10.30487 -10.30486 -10.30486 -10.30476 -10.30475
 Alpha  occ. eigenvalues --  -10.30475 -10.30474 -10.30474 -10.30473 -10.30473
 Alpha  occ. eigenvalues --   -1.05388  -1.03373  -1.03372  -1.03370  -0.99500
 Alpha  occ. eigenvalues --   -0.99500  -0.99498  -0.99498  -0.99496  -0.95406
 Alpha  occ. eigenvalues --   -0.95405  -0.95404  -0.92147  -0.92145  -0.92145
 Alpha  occ. eigenvalues --   -0.92143  -0.86927  -0.86927  -0.86926  -0.86926
 Alpha  occ. eigenvalues --   -0.86925  -0.85196  -0.85195  -0.85195  -0.85193
 Alpha  occ. eigenvalues --   -0.79337  -0.79335  -0.79335  -0.79334  -0.79332
 Alpha  occ. eigenvalues --   -0.77903  -0.77902  -0.77900  -0.73487  -0.73486
 Alpha  occ. eigenvalues --   -0.73485  -0.69599  -0.69598  -0.69595  -0.69595
 Alpha  occ. eigenvalues --   -0.69594  -0.69331  -0.69329  -0.69326  -0.66697
 Alpha  occ. eigenvalues --   -0.62422  -0.62421  -0.62420  -0.62418  -0.59841
 Alpha  occ. eigenvalues --   -0.59841  -0.59840  -0.59839  -0.59838  -0.58162
 Alpha  occ. eigenvalues --   -0.58161  -0.58159  -0.55479  -0.55475  -0.55474
 Alpha  occ. eigenvalues --   -0.55474  -0.52968  -0.52965  -0.52965  -0.52857
 Alpha  occ. eigenvalues --   -0.52856  -0.52856  -0.52854  -0.50829  -0.50828
 Alpha  occ. eigenvalues --   -0.50827  -0.50825  -0.50824  -0.49400  -0.49400
 Alpha  occ. eigenvalues --   -0.49399  -0.49397  -0.48227  -0.48226  -0.48225
 Alpha  occ. eigenvalues --   -0.48070  -0.48070  -0.48069  -0.48068  -0.48067
 Alpha  occ. eigenvalues --   -0.46290  -0.46288  -0.46287  -0.46286  -0.41819
 Alpha  occ. eigenvalues --   -0.41818  -0.41818  -0.41797  -0.41795  -0.41793
 Alpha  occ. eigenvalues --   -0.41793  -0.41792  -0.40609  -0.40608  -0.40608
 Alpha  occ. eigenvalues --   -0.40607  -0.40604  -0.39926  -0.39925  -0.39923
 Alpha  occ. eigenvalues --   -0.39923  -0.32130  -0.32130  -0.32129  -0.32127
 Alpha  occ. eigenvalues --   -0.31747  -0.31745  -0.31745  -0.31743  -0.31742
 Alpha  occ. eigenvalues --   -0.26319  -0.26318  -0.26316  -0.26315  -0.26313
 Alpha virt. eigenvalues --   -0.08384  -0.08380  -0.08377  -0.03437  -0.03434
 Alpha virt. eigenvalues --   -0.03426   0.01223   0.01225   0.01229   0.01497
 Alpha virt. eigenvalues --    0.01500   0.01500   0.01504   0.01506   0.08476

 Mulliken atomic charges:
              1
     1  C   -0.000033
     2  C   -0.000036
     3  C   -0.000013
     4  C    0.000066
     5  C   -0.000072
     6  C    0.000129
     7  C   -0.000279
     8  C    0.000157
     9  C    0.000130
    10  C    0.000008
    11  C   -0.000143
    12  C    0.000132
    13  C   -0.000194
    14  C    0.000101
    15  C    0.000069
    16  C   -0.000092
    17  C    0.000049
    18  C   -0.000119
    19  C    0.000208
    20  C   -0.000065
    21  C   -0.000067
    22  C    0.000025
    23  C   -0.000163
    24  C    0.000067
    25  C    0.000085
    26  C   -0.000092
    27  C    0.000032
    28  C   -0.000051
    29  C    0.000147
    30  C   -0.000241
    31  C    0.000149
    32  C   -0.000130
    33  C    0.000053
    34  C    0.000060
    35  C    0.000018
    36  C    0.000063
    37  C    0.000094
    38  C   -0.000015
    39  C   -0.000102
    40  C    0.000073
    41  C    0.000018
    42  C    0.000123
    43  C   -0.000104
    44  C   -0.000013
    45  C    0.000034
    46  C   -0.000153
    47  C    0.000111
    48  C   -0.000029
    49  C    0.000044
    50  C    0.000026
    51  C   -0.000134
    52  C    0.000133
    53  C    0.000104
    54  C   -0.000190
    55  C    0.000120
    56  C   -0.000042
    57  C    0.000035
    58  C   -0.000159
    59  C    0.000004
    60  C    0.000066
 Sum of Mulliken atomic charges =   0.00000

 Dipole moment (field-independent basis, Debye):
    X=             -0.0002    Y=             -0.0003    Z=              0.0001  Tot=              0.0004
 Quadrupole moment (field-independent basis, Debye-Ang):
   XX=           -324.5522   YY=           -324.5494   ZZ=           -324.5457
   XY=              0.0043   XZ=             -0.0019   YZ=              0.0015

  Exact polarizability: 457.810  -0.013 457.818   0.041  -0.018 457.840
 Approx polarizability: 969.112  -0.009 969.196   0.097  -0.032 969.192

 Normal termination of Gaussian 09 at Wed Feb 12 16:42:31 2014.
