 Gaussian 09, Revision C.01,

 ----------------------------
 #p opt am1 geom=connectivity
 ----------------------------

 (Enter /apps/gaussian/g09_c01/g09/l101.exe)
 ------------
 C60O_AM1_opt
 ------------
 Charge =  0 Multiplicity = 1

 SCF Done:  E(RAM1) =   1.93472889584     A.U. after   18 cycles
 SCF Done:  E(RAM1) =   1.79626418475     A.U. after   16 cycles
 SCF Done:  E(RAM1) =   1.63845072612     A.U. after   17 cycles
 SCF Done:  E(RAM1) =   1.56033021197     A.U. after   16 cycles
 SCF Done:  E(RAM1) =   1.54277113615     A.U. after   15 cycles
 SCF Done:  E(RAM1) =   1.53931644446     A.U. after   15 cycles
 SCF Done:  E(RAM1) =   1.53453524756     A.U. after   15 cycles
 SCF Done:  E(RAM1) =   1.54302988614     A.U. after   16 cycles
 SCF Done:  E(RAM1) =   1.53170496374     A.U. after   16 cycles
 SCF Done:  E(RAM1) =   1.53031313191     A.U. after   14 cycles
 SCF Done:  E(RAM1) =   1.52982862407     A.U. after   14 cycles
 SCF Done:  E(RAM1) =   1.52975717974     A.U. after   13 cycles
 SCF Done:  E(RAM1) =   1.52973162218     A.U. after   11 cycles
 Optimization completed.
    -- Stationary point found.
 Normal termination of Gaussian 09 at Fri Jan 24 19:26:55 2014.
 Gaussian 09:  EM64L-G09RevC.01 23-Sep-2011

 -----------------------------------
 #p opt b3lyp/6-31g* geom=checkpoint
 -----------------------------------

 -----------------------
 C60O_B3LYP_631GSTAR_opt
 -----------------------
 Structure from the checkpoint file:  C60O_B3LYP_631GSTAR_opt.chk
 Charge =  0 Multiplicity = 1

 SCF Done:  E(RB3LYP) =  -2361.35010918     A.U. after   15 cycles
 SCF Done:  E(RB3LYP) =  -2361.35565547     A.U. after   13 cycles
 SCF Done:  E(RB3LYP) =  -2361.35609958     A.U. after   10 cycles
 Optimization completed.
    -- Stationary point found.

                         Standard orientation:
 ---------------------------------------------------------------------
 Center     Atomic      Atomic             Coordinates (Angstroms)
 Number     Number       Type             X           Y           Z
 ---------------------------------------------------------------------
      1          6           0        0.117939    3.484316   -0.696953
      2          6           0        0.117942    3.484190    0.697566
      3          6           0       -1.056179    3.030090    1.423661
      4          6           0       -2.183570    2.586984    0.727894
      5          6           0       -2.183572    2.587116   -0.727431
      6          6           0       -1.056182    3.030340   -1.423124
      7          6           0       -0.615245    2.307870   -2.594725
      8          6           0        0.837690    2.307910   -2.599128
      9          6           0        1.291496    3.036087   -1.425180
     10          6           0        2.420058    2.602799   -0.726710
     11          6           0        2.420063    2.602675    0.727165
     12          6           0        1.291498    3.035833    1.425711
     13          6           0        0.837697    2.307449    2.599533
     14          6           0       -0.615240    2.307412    2.595133
     15          6           0       -1.321045    1.176170    3.017317
     16          6           0       -2.501716    0.737214    2.298586
     17          6           0       -2.941917    1.452547    1.194781
     18          6           0       -3.517143    0.771340    0.000060
     19          6           0       -2.941914    1.452763   -1.194522
     20          6           0       -2.501722    0.737623   -2.298456
     21          6           0       -1.321051    1.176704   -3.017113
     22          6           0       -0.593961    0.000311   -3.462409
     23          6           0        0.801260    0.000293   -3.471025
     24          6           0        1.532339    1.176368   -3.027458
     25          6           0        2.707751    0.727433   -2.303741
     26          6           0        3.142694    1.425341   -1.175417
     27          6           0        3.591010    0.697709    0.000058
     28          6           0        3.142696    1.425134    1.175661
     29          6           0        2.707758    0.727025    2.303863
     30          6           0        1.532349    1.175833    3.027660
     31          6           0        0.801269   -0.000318    3.471024
     32          6           0       -0.593951   -0.000299    3.462409
     33          6           0       -1.321074   -1.176671    3.017107
     34          6           0       -2.501750   -0.737559    2.298466
     35          6           0       -2.941948   -1.452683    1.194526
     36          6           0       -3.517175   -0.771245   -0.000053
     37          6           0       -2.941957   -1.452466   -1.194773
     38          6           0       -2.501756   -0.737149   -2.298585
     39          6           0       -1.321083   -1.176137   -3.017305
     40          6           0       -0.615310   -2.307399   -2.595129
     41          6           0        0.837623   -2.307473   -2.599531
     42          6           0        1.532301   -1.175874   -3.027649
     43          6           0        2.707744   -0.727095   -2.303871
     44          6           0        3.142650   -1.425207   -1.175667
     45          6           0        3.590982   -0.697792   -0.000065
     46          6           0        3.142652   -1.425413    1.175408
     47          6           0        2.707748   -0.727502    2.303737
     48          6           0        1.532307   -1.176409    3.027440
     49          6           0        0.837630   -2.307932    2.599123
     50          6           0       -0.615303   -2.307858    2.594723
     51          6           0       -1.056263   -3.030320    1.423126
     52          6           0       -2.183635   -2.587054    0.727436
     53          6           0       -2.183639   -2.586925   -0.727890
     54          6           0       -1.056268   -3.030069   -1.423657
     55          6           0        0.117842   -3.484198   -0.697571
     56          6           0        0.117845   -3.484323    0.696958
     57          6           0        1.291411   -3.036126    1.425168
     58          6           0        2.419980   -2.602858    0.726702
     59          6           0        2.419979   -2.602730   -0.727167
     60          6           0        1.291405   -3.035874   -1.425706
     61          8           0       -4.711532    0.000057    0.000006
 ---------------------------------------------------------------------

 The electronic state is 1-A.
 Alpha  occ. eigenvalues --  -19.20263 -10.28817 -10.28798 -10.23737 -10.23736
 Alpha  occ. eigenvalues --  -10.23707 -10.23707 -10.23635 -10.23635 -10.23601
 Alpha  occ. eigenvalues --  -10.23601 -10.23503 -10.23503 -10.23503 -10.23503
 Alpha  occ. eigenvalues --  -10.23479 -10.23479 -10.23416 -10.23403 -10.23400
 Alpha  occ. eigenvalues --  -10.23394 -10.23387 -10.23386 -10.23384 -10.23379
 Alpha  occ. eigenvalues --  -10.23376 -10.23363 -10.23362 -10.23361 -10.23354
 Alpha  occ. eigenvalues --  -10.23353 -10.23352 -10.23348 -10.23344 -10.23336
 Alpha  occ. eigenvalues --  -10.23328 -10.23328 -10.23328 -10.23326 -10.23322
 Alpha  occ. eigenvalues --  -10.23321 -10.23316 -10.23309 -10.23308 -10.23307
 Alpha  occ. eigenvalues --  -10.23302 -10.23301 -10.23293 -10.23293 -10.23276
 Alpha  occ. eigenvalues --  -10.23276 -10.23269 -10.23269 -10.23215 -10.23215
 Alpha  occ. eigenvalues --  -10.23215 -10.23214 -10.23137 -10.23137 -10.23136
 Alpha  occ. eigenvalues --  -10.23136  -1.11714  -0.96883  -0.95144  -0.95085
 Alpha  occ. eigenvalues --   -0.94468  -0.91460  -0.91341  -0.91302  -0.91296
 Alpha  occ. eigenvalues --   -0.90258  -0.87503  -0.87328  -0.87045  -0.84310
 Alpha  occ. eigenvalues --   -0.84156  -0.84130  -0.82977  -0.79325  -0.79247
 Alpha  occ. eigenvalues --   -0.79179  -0.79082  -0.78546  -0.77530  -0.77523
 Alpha  occ. eigenvalues --   -0.77381  -0.75979  -0.72086  -0.72031  -0.71821
 Alpha  occ. eigenvalues --   -0.71785  -0.70814  -0.70763  -0.70473  -0.69694
 Alpha  occ. eigenvalues --   -0.66333  -0.66172  -0.65673  -0.63243  -0.62591
 Alpha  occ. eigenvalues --   -0.62546  -0.62454  -0.62428  -0.62329  -0.62279
 Alpha  occ. eigenvalues --   -0.61602  -0.59584  -0.56647  -0.56030  -0.55636
 Alpha  occ. eigenvalues --   -0.55466  -0.54305  -0.53497  -0.53381  -0.53267
 Alpha  occ. eigenvalues --   -0.53246  -0.51924  -0.51819  -0.51673  -0.49646
 Alpha  occ. eigenvalues --   -0.49511  -0.49083  -0.48406  -0.48054  -0.47081
 Alpha  occ. eigenvalues --   -0.46715  -0.46625  -0.46141  -0.46091  -0.45843
 Alpha  occ. eigenvalues --   -0.45529  -0.45493  -0.45040  -0.44653  -0.44510
 Alpha  occ. eigenvalues --   -0.44233  -0.43798  -0.43451  -0.43387  -0.42867
 Alpha  occ. eigenvalues --   -0.42378  -0.42353  -0.41956  -0.41422  -0.41393
 Alpha  occ. eigenvalues --   -0.41362  -0.41179  -0.40765  -0.40635  -0.40392
 Alpha  occ. eigenvalues --   -0.40383  -0.40007  -0.37094  -0.37012  -0.36635
 Alpha  occ. eigenvalues --   -0.36052  -0.36049  -0.35922  -0.35780  -0.35319
 Alpha  occ. eigenvalues --   -0.35229  -0.35193  -0.35149  -0.34927  -0.34873
 Alpha  occ. eigenvalues --   -0.34084  -0.34023  -0.33998  -0.33934  -0.30129
 Alpha  occ. eigenvalues --   -0.28640  -0.27472  -0.27221  -0.27197  -0.27166
 Alpha  occ. eigenvalues --   -0.27163  -0.27095  -0.26970  -0.26289  -0.23179
 Alpha  occ. eigenvalues --   -0.22416  -0.22235  -0.22180  -0.21848
 Alpha virt. eigenvalues --   -0.12223  -0.12053  -0.11320  -0.07842  -0.07675
 Alpha virt. eigenvalues --   -0.06887  -0.06326  -0.03678  -0.03600  -0.03592
 Alpha virt. eigenvalues --   -0.03279  -0.03275  -0.03188  -0.02071   0.02109

 Mulliken atomic charges:
              1
     1  C    0.001391
     2  C    0.001393
     3  C   -0.006898
     4  C    0.001912
     5  C    0.001911
     6  C   -0.006897
     7  C    0.000462
     8  C   -0.000053
     9  C   -0.000819
    10  C    0.000872
    11  C    0.000870
    12  C   -0.000817
    13  C   -0.000052
    14  C    0.000458
    15  C    0.000517
    16  C   -0.008572
    17  C    0.049577
    18  C    0.157758
    19  C    0.049578
    20  C   -0.008575
    21  C    0.000514
    22  C    0.001319
    23  C    0.000432
    24  C    0.000090
    25  C    0.000486
    26  C    0.000258
    27  C    0.000438
    28  C    0.000258
    29  C    0.000487
    30  C    0.000090
    31  C    0.000432
    32  C    0.001319
    33  C    0.000513
    34  C   -0.008578
    35  C    0.049576
    36  C    0.157780
    37  C    0.049574
    38  C   -0.008573
    39  C    0.000515
    40  C    0.000458
    41  C   -0.000055
    42  C    0.000092
    43  C    0.000482
    44  C    0.000258
    45  C    0.000445
    46  C    0.000258
    47  C    0.000482
    48  C    0.000091
    49  C   -0.000054
    50  C    0.000461
    51  C   -0.006899
    52  C    0.001916
    53  C    0.001916
    54  C   -0.006899
    55  C    0.001394
    56  C    0.001392
    57  C   -0.000819
    58  C    0.000873
    59  C    0.000873
    60  C   -0.000819
    61  O   -0.476792
 Sum of Mulliken atomic charges =   0.00000

 Dipole moment (field-independent basis, Debye):
    X=              1.2700    Y=              0.0000    Z=              0.0000  Tot=              1.2700
 Quadrupole moment (field-independent basis, Debye-Ang):
   XX=           -338.0051   YY=           -327.8966   ZZ=           -328.4238
   XY=              0.0002   XZ=              0.0000   YZ=              0.0000

 1\1\GINC-CX1-13-34-2\FOpt\RB3LYP\6-31G(d)\C60O1\SPF310\24-Jan-2014\0\\
 #p opt b3lyp/6-31g* geom=checkpoint\\C60O_B3LYP_631GSTAR_opt\\0,1\C,0.
 0087342998,3.4820916336,-0.7171649882\C,-0.0040251291,3.4900770392,0.6
 772724359\C,-1.1686550933,3.0005530238,1.3955943128\C,-2.2739380606,2.
 5153354113,0.692489186\C,-2.2606207937,2.5070034259,-0.7627514409\C,-1
 .1426021925,2.9842456619,-1.4510240249\C,-0.666688864,2.2703813429,-2.
 6141847378\C,0.7853873403,2.3197917153,-2.6055801903\C,1.2034473727,3.
 0697911238,-1.4320979981\C,2.3396240758,2.6791921867,-0.7209122244\C,2

 Normal termination of Gaussian 09 at Fri Jan 24 21:54:45 2014.
