 Gaussian 09, Revision C.01,
 Gaussian 09:  EM64L-G09RevC.01 23-Sep-2011

 ----------------------------------------------
 #p CAM-B3LYP/6-31g* sp nosymm pop=chelpg polar
 ----------------------------------------------

 (Enter /apps/gaussian/g09_c01/g09/l101.exe)
 ----------------------------------------
 6-31g* CAM-B3LYP C60O_B3LYP_631GSTAR_opt
 ----------------------------------------
 Charge =  0 Multiplicity = 1

                          Input orientation:
 ---------------------------------------------------------------------
 Center     Atomic      Atomic             Coordinates (Angstroms)
 Number     Number       Type             X           Y           Z
 ---------------------------------------------------------------------
      1          6           0        0.117939    3.484316   -0.696953
      2          6           0        0.117942    3.484190    0.697566
      3          6           0       -1.056179    3.030090    1.423661
      4          6           0       -2.183570    2.586984    0.727894
      5          6           0       -2.183572    2.587116   -0.727431
      6          6           0       -1.056182    3.030340   -1.423124
      7          6           0       -0.615245    2.307870   -2.594725
      8          6           0        0.837690    2.307910   -2.599128
      9          6           0        1.291496    3.036087   -1.425180
     10          6           0        2.420058    2.602799   -0.726710
     11          6           0        2.420063    2.602675    0.727165
     12          6           0        1.291498    3.035833    1.425711
     13          6           0        0.837697    2.307449    2.599533
     14          6           0       -0.615240    2.307412    2.595133
     15          6           0       -1.321045    1.176170    3.017317
     16          6           0       -2.501716    0.737214    2.298586
     17          6           0       -2.941917    1.452547    1.194781
     18          6           0       -3.517143    0.771340    0.000060
     19          6           0       -2.941914    1.452763   -1.194522
     20          6           0       -2.501722    0.737623   -2.298456
     21          6           0       -1.321051    1.176704   -3.017113
     22          6           0       -0.593961    0.000311   -3.462409
     23          6           0        0.801260    0.000293   -3.471025
     24          6           0        1.532339    1.176368   -3.027458
     25          6           0        2.707751    0.727433   -2.303741
     26          6           0        3.142694    1.425341   -1.175417
     27          6           0        3.591010    0.697709    0.000058
     28          6           0        3.142696    1.425134    1.175661
     29          6           0        2.707758    0.727025    2.303863
     30          6           0        1.532349    1.175833    3.027660
     31          6           0        0.801269   -0.000318    3.471024
     32          6           0       -0.593951   -0.000299    3.462409
     33          6           0       -1.321074   -1.176671    3.017107
     34          6           0       -2.501750   -0.737559    2.298466
     35          6           0       -2.941948   -1.452683    1.194526
     36          6           0       -3.517175   -0.771245   -0.000053
     37          6           0       -2.941957   -1.452466   -1.194773
     38          6           0       -2.501756   -0.737149   -2.298585
     39          6           0       -1.321083   -1.176137   -3.017305
     40          6           0       -0.615310   -2.307399   -2.595129
     41          6           0        0.837623   -2.307473   -2.599531
     42          6           0        1.532301   -1.175874   -3.027649
     43          6           0        2.707744   -0.727095   -2.303871
     44          6           0        3.142650   -1.425207   -1.175667
     45          6           0        3.590982   -0.697792   -0.000065
     46          6           0        3.142652   -1.425413    1.175408
     47          6           0        2.707748   -0.727502    2.303737
     48          6           0        1.532307   -1.176409    3.027440
     49          6           0        0.837630   -2.307932    2.599123
     50          6           0       -0.615303   -2.307858    2.594723
     51          6           0       -1.056263   -3.030320    1.423126
     52          6           0       -2.183635   -2.587054    0.727436
     53          6           0       -2.183639   -2.586925   -0.727890
     54          6           0       -1.056268   -3.030069   -1.423657
     55          6           0        0.117842   -3.484198   -0.697571
     56          6           0        0.117845   -3.484323    0.696958
     57          6           0        1.291411   -3.036126    1.425168
     58          6           0        2.419980   -2.602858    0.726702
     59          6           0        2.419979   -2.602730   -0.727167
     60          6           0        1.291405   -3.035874   -1.425706
     61          8           0       -4.711532    0.000057    0.000006
 ---------------------------------------------------------------------

 SCF Done:  E(RCAM-B3LYP) =  -2360.10640630     A.U. after   15 cycles

 Alpha  occ. eigenvalues --  -19.27489 -10.36219 -10.36200 -10.31193 -10.31193
 Alpha  occ. eigenvalues --  -10.31164 -10.31164 -10.31073 -10.31073 -10.31040
 Alpha  occ. eigenvalues --  -10.31039 -10.30949 -10.30948 -10.30948 -10.30947
 Alpha  occ. eigenvalues --  -10.30918 -10.30918 -10.30839 -10.30830 -10.30825
 Alpha  occ. eigenvalues --  -10.30823 -10.30816 -10.30814 -10.30812 -10.30806
 Alpha  occ. eigenvalues --  -10.30802 -10.30794 -10.30793 -10.30787 -10.30782
 Alpha  occ. eigenvalues --  -10.30780 -10.30779 -10.30779 -10.30776 -10.30762
 Alpha  occ. eigenvalues --  -10.30762 -10.30760 -10.30756 -10.30756 -10.30753
 Alpha  occ. eigenvalues --  -10.30750 -10.30742 -10.30735 -10.30735 -10.30733
 Alpha  occ. eigenvalues --  -10.30730 -10.30729 -10.30723 -10.30723 -10.30702
 Alpha  occ. eigenvalues --  -10.30701 -10.30695 -10.30694 -10.30648 -10.30648
 Alpha  occ. eigenvalues --  -10.30647 -10.30647 -10.30564 -10.30564 -10.30564
 Alpha  occ. eigenvalues --  -10.30563  -1.19809  -1.05473  -1.03697  -1.03643
 Alpha  occ. eigenvalues --   -1.02996  -0.99925  -0.99802  -0.99770  -0.99761
 Alpha  occ. eigenvalues --   -0.98675  -0.95857  -0.95678  -0.95386  -0.92579
 Alpha  occ. eigenvalues --   -0.92427  -0.92399  -0.91192  -0.87426  -0.87342
 Alpha  occ. eigenvalues --   -0.87272  -0.87174  -0.86618  -0.85569  -0.85562
 Alpha  occ. eigenvalues --   -0.85419  -0.83946  -0.79880  -0.79821  -0.79605
 Alpha  occ. eigenvalues --   -0.79569  -0.78579  -0.78557  -0.78247  -0.77416
 Alpha  occ. eigenvalues --   -0.73985  -0.73828  -0.73292  -0.70704  -0.69972
 Alpha  occ. eigenvalues --   -0.69936  -0.69829  -0.69809  -0.69739  -0.69690
 Alpha  occ. eigenvalues --   -0.68937  -0.66939  -0.63892  -0.63292  -0.62852
 Alpha  occ. eigenvalues --   -0.62678  -0.61377  -0.60457  -0.60359  -0.60254
 Alpha  occ. eigenvalues --   -0.60226  -0.58850  -0.58767  -0.58617  -0.56506
 Alpha  occ. eigenvalues --   -0.56314  -0.55878  -0.55610  -0.55207  -0.53838
 Alpha  occ. eigenvalues --   -0.53419  -0.53333  -0.53284  -0.53209  -0.52845
 Alpha  occ. eigenvalues --   -0.52645  -0.52352  -0.51646  -0.51235  -0.51084
 Alpha  occ. eigenvalues --   -0.50801  -0.50307  -0.49947  -0.49850  -0.49334
 Alpha  occ. eigenvalues --   -0.48860  -0.48802  -0.48557  -0.48374  -0.48320
 Alpha  occ. eigenvalues --   -0.48266  -0.47943  -0.47244  -0.47242  -0.46770
 Alpha  occ. eigenvalues --   -0.46761  -0.46377  -0.43327  -0.43155  -0.42723
 Alpha  occ. eigenvalues --   -0.42108  -0.42103  -0.42075  -0.41866  -0.41361
 Alpha  occ. eigenvalues --   -0.41255  -0.41208  -0.41206  -0.40931  -0.40872
 Alpha  occ. eigenvalues --   -0.40323  -0.40158  -0.40147  -0.40133  -0.36337
 Alpha  occ. eigenvalues --   -0.33932  -0.32610  -0.32383  -0.32263  -0.32219
 Alpha  occ. eigenvalues --   -0.32125  -0.31965  -0.31890  -0.31013  -0.27635
 Alpha  occ. eigenvalues --   -0.26834  -0.26565  -0.26489  -0.26087
 Alpha virt. eigenvalues --   -0.08802  -0.08556  -0.07751  -0.03837  -0.03527
 Alpha virt. eigenvalues --   -0.02678  -0.01914   0.01078   0.01081   0.01098
 Alpha virt. eigenvalues --    0.01302   0.01319   0.01440   0.02740   0.07602

 Mulliken atomic charges:
              1
     1  C    0.001442
     2  C    0.001444
     3  C   -0.006434
     4  C    0.000721
     5  C    0.000721
     6  C   -0.006434
     7  C    0.000564
     8  C    0.000087
     9  C   -0.000744
    10  C    0.000890
    11  C    0.000890
    12  C   -0.000743
    13  C    0.000088
    14  C    0.000560
    15  C    0.000552
    16  C   -0.007495
    17  C    0.049429
    18  C    0.155395
    19  C    0.049431
    20  C   -0.007498
    21  C    0.000549
    22  C    0.001064
    23  C    0.000359
    24  C    0.000089
    25  C    0.000447
    26  C    0.000292
    27  C    0.000423
    28  C    0.000292
    29  C    0.000448
    30  C    0.000089
    31  C    0.000359
    32  C    0.001064
    33  C    0.000547
    34  C   -0.007498
    35  C    0.049428
    36  C    0.155418
    37  C    0.049426
    38  C   -0.007494
    39  C    0.000549
    40  C    0.000560
    41  C    0.000086
    42  C    0.000090
    43  C    0.000445
    44  C    0.000292
    45  C    0.000429
    46  C    0.000292
    47  C    0.000444
    48  C    0.000090
    49  C    0.000086
    50  C    0.000562
    51  C   -0.006436
    52  C    0.000726
    53  C    0.000725
    54  C   -0.006436
    55  C    0.001445
    56  C    0.001443
    57  C   -0.000744
    58  C    0.000891
    59  C    0.000891
    60  C   -0.000745
    61  O   -0.473853
 Sum of Mulliken atomic charges =   0.00000

 Dipole moment (field-independent basis, Debye):
    X=              1.3238    Y=              0.0000    Z=              0.0000  Tot=              1.3238
 Quadrupole moment (field-independent basis, Debye-Ang):
   XX=           -338.8888   YY=           -328.3118   ZZ=           -328.7647
   XY=              0.0002   XZ=              0.0000   YZ=              0.0000

  Exact polarizability: 476.045   0.000 456.248   0.000   0.000 452.927
 Approx polarizability: 990.663   0.000 955.820   0.000   0.001 943.115

 1\1\GINC-CX1-5-5-2\SP\RCAM-B3LYP\6-31G(d)\C60O1\SPF310\11-Feb-2014\0\\
 #p CAM-B3LYP/6-31g* sp nosymm pop=chelpg polar\\6-31g* CAM-B3LYP C60O_
 B3LYP_631GSTAR_opt\\0,1\C,0,0.117939,3.484316,-0.696953\C,0,0.117942,3
 .48419,0.697566\C,0,-1.056179,3.03009,1.423661\C,0,-2.18357,2.586984,0
 .727894\C,0,-2.183572,2.587116,-0.727431\C,0,-1.056182,3.03034,-1.4231
 24\C,0,-0.615245,2.30787,-2.594725\C,0,0.83769,2.30791,-2.599128\C,0,1
 .291496,3.036087,-1.42518\C,0,2.420058,2.602799,-0.72671\C,0,2.420063,
 2.602675,0.727165\C,0,1.291498,3.035833,1.425711\C,0,0.837697,2.307449

 Normal termination of Gaussian 09 at Tue Feb 11 21:18:43 2014.
