 Gaussian 09, Revision C.01,
 Gaussian 09:  EM64L-G09RevC.01 23-Sep-2011

 -------------------------------------
 #p HF/6-31+g* sp nosymm pop=ESP polar
 -------------------------------------

 (Enter /apps/gaussian/g09_c01/g09/l101.exe)
 ----------------------------------
 6-31+g* HF C60O_B3LYP_631GSTAR_opt
 ----------------------------------
 Charge =  0 Multiplicity = 1

                          Input orientation:
 ---------------------------------------------------------------------
 Center     Atomic      Atomic             Coordinates (Angstroms)
 Number     Number       Type             X           Y           Z
 ---------------------------------------------------------------------
      1          6           0        0.117939    3.484316   -0.696953
      2          6           0        0.117942    3.484190    0.697566
      3          6           0       -1.056179    3.030090    1.423661
      4          6           0       -2.183570    2.586984    0.727894
      5          6           0       -2.183572    2.587116   -0.727431
      6          6           0       -1.056182    3.030340   -1.423124
      7          6           0       -0.615245    2.307870   -2.594725
      8          6           0        0.837690    2.307910   -2.599128
      9          6           0        1.291496    3.036087   -1.425180
     10          6           0        2.420058    2.602799   -0.726710
     11          6           0        2.420063    2.602675    0.727165
     12          6           0        1.291498    3.035833    1.425711
     13          6           0        0.837697    2.307449    2.599533
     14          6           0       -0.615240    2.307412    2.595133
     15          6           0       -1.321045    1.176170    3.017317
     16          6           0       -2.501716    0.737214    2.298586
     17          6           0       -2.941917    1.452547    1.194781
     18          6           0       -3.517143    0.771340    0.000060
     19          6           0       -2.941914    1.452763   -1.194522
     20          6           0       -2.501722    0.737623   -2.298456
     21          6           0       -1.321051    1.176704   -3.017113
     22          6           0       -0.593961    0.000311   -3.462409
     23          6           0        0.801260    0.000293   -3.471025
     24          6           0        1.532339    1.176368   -3.027458
     25          6           0        2.707751    0.727433   -2.303741
     26          6           0        3.142694    1.425341   -1.175417
     27          6           0        3.591010    0.697709    0.000058
     28          6           0        3.142696    1.425134    1.175661
     29          6           0        2.707758    0.727025    2.303863
     30          6           0        1.532349    1.175833    3.027660
     31          6           0        0.801269   -0.000318    3.471024
     32          6           0       -0.593951   -0.000299    3.462409
     33          6           0       -1.321074   -1.176671    3.017107
     34          6           0       -2.501750   -0.737559    2.298466
     35          6           0       -2.941948   -1.452683    1.194526
     36          6           0       -3.517175   -0.771245   -0.000053
     37          6           0       -2.941957   -1.452466   -1.194773
     38          6           0       -2.501756   -0.737149   -2.298585
     39          6           0       -1.321083   -1.176137   -3.017305
     40          6           0       -0.615310   -2.307399   -2.595129
     41          6           0        0.837623   -2.307473   -2.599531
     42          6           0        1.532301   -1.175874   -3.027649
     43          6           0        2.707744   -0.727095   -2.303871
     44          6           0        3.142650   -1.425207   -1.175667
     45          6           0        3.590982   -0.697792   -0.000065
     46          6           0        3.142652   -1.425413    1.175408
     47          6           0        2.707748   -0.727502    2.303737
     48          6           0        1.532307   -1.176409    3.027440
     49          6           0        0.837630   -2.307932    2.599123
     50          6           0       -0.615303   -2.307858    2.594723
     51          6           0       -1.056263   -3.030320    1.423126
     52          6           0       -2.183635   -2.587054    0.727436
     53          6           0       -2.183639   -2.586925   -0.727890
     54          6           0       -1.056268   -3.030069   -1.423657
     55          6           0        0.117842   -3.484198   -0.697571
     56          6           0        0.117845   -3.484323    0.696958
     57          6           0        1.291411   -3.036126    1.425168
     58          6           0        2.419980   -2.602858    0.726702
     59          6           0        2.419979   -2.602730   -0.727167
     60          6           0        1.291405   -3.035874   -1.425706
     61          8           0       -4.711532    0.000057    0.000006
 ---------------------------------------------------------------------

 SCF Done:  E(RHF) =  -2346.67645895     A.U. after   21 cycles

 Alpha  occ. eigenvalues --  -20.64220 -11.35540 -11.35483 -11.30559 -11.30558
 Alpha  occ. eigenvalues --  -11.30486 -11.30486 -11.30405 -11.30404 -11.30328
 Alpha  occ. eigenvalues --  -11.30327 -11.30253 -11.30253 -11.30209 -11.30207
 Alpha  occ. eigenvalues --  -11.30202 -11.30201 -11.30189 -11.30168 -11.30160
 Alpha  occ. eigenvalues --  -11.30146 -11.30134 -11.30126 -11.30116 -11.30112
 Alpha  occ. eigenvalues --  -11.30104 -11.30099 -11.30096 -11.30079 -11.30077
 Alpha  occ. eigenvalues --  -11.30070 -11.30066 -11.30053 -11.30052 -11.30044
 Alpha  occ. eigenvalues --  -11.30040 -11.30015 -11.30010 -11.30006 -11.29992
 Alpha  occ. eigenvalues --  -11.29984 -11.29975 -11.29975 -11.29973 -11.29966
 Alpha  occ. eigenvalues --  -11.29965 -11.29950 -11.29945 -11.29943 -11.29924
 Alpha  occ. eigenvalues --  -11.29922 -11.29911 -11.29909 -11.29881 -11.29879
 Alpha  occ. eigenvalues --  -11.29872 -11.29871 -11.29758 -11.29757 -11.29754
 Alpha  occ. eigenvalues --  -11.29754  -1.47420  -1.30389  -1.28198  -1.28144
 Alpha  occ. eigenvalues --   -1.27336  -1.23502  -1.23408  -1.23352  -1.23343
 Alpha  occ. eigenvalues --   -1.21993  -1.18390  -1.18230  -1.17835  -1.14590
 Alpha  occ. eigenvalues --   -1.14382  -1.14366  -1.12887  -1.08025  -1.08009
 Alpha  occ. eigenvalues --   -1.07899  -1.07762  -1.07170  -1.06066  -1.06062
 Alpha  occ. eigenvalues --   -1.05882  -1.04084  -0.99378  -0.99375  -0.99130
 Alpha  occ. eigenvalues --   -0.99076  -0.97382  -0.96635  -0.96238  -0.95690
 Alpha  occ. eigenvalues --   -0.90498  -0.90241  -0.89721  -0.87557  -0.86600
 Alpha  occ. eigenvalues --   -0.86578  -0.86386  -0.86295  -0.86155  -0.86111
 Alpha  occ. eigenvalues --   -0.85258  -0.81037  -0.78218  -0.77350  -0.76779
 Alpha  occ. eigenvalues --   -0.76544  -0.75579  -0.74860  -0.74807  -0.74649
 Alpha  occ. eigenvalues --   -0.74643  -0.72008  -0.71945  -0.71774  -0.69205
 Alpha  occ. eigenvalues --   -0.68682  -0.68050  -0.67316  -0.66036  -0.65758
 Alpha  occ. eigenvalues --   -0.65351  -0.65229  -0.64678  -0.64171  -0.63610
 Alpha  occ. eigenvalues --   -0.63036  -0.62845  -0.62837  -0.62667  -0.62392
 Alpha  occ. eigenvalues --   -0.62264  -0.61943  -0.61756  -0.61522  -0.60772
 Alpha  occ. eigenvalues --   -0.60199  -0.60112  -0.59055  -0.58623  -0.57984
 Alpha  occ. eigenvalues --   -0.57954  -0.57562  -0.56676  -0.56557  -0.56554
 Alpha  occ. eigenvalues --   -0.56269  -0.55795  -0.54322  -0.53037  -0.52648
 Alpha  occ. eigenvalues --   -0.52041  -0.51996  -0.51340  -0.51149  -0.51052
 Alpha  occ. eigenvalues --   -0.50787  -0.50702  -0.48477  -0.48355  -0.47825
 Alpha  occ. eigenvalues --   -0.47504  -0.47019  -0.46903  -0.46575  -0.46398
 Alpha  occ. eigenvalues --   -0.39209  -0.37053  -0.36769  -0.36686  -0.36339
 Alpha  occ. eigenvalues --   -0.36134  -0.35817  -0.35604  -0.34732  -0.30775
 Alpha  occ. eigenvalues --   -0.29732  -0.29303  -0.29182  -0.28726
 Alpha virt. eigenvalues --   -0.03712  -0.03338  -0.02380   0.02594   0.03079
 Alpha virt. eigenvalues --    0.03987   0.04011   0.07400   0.07408   0.07428
 Alpha virt. eigenvalues --    0.07492   0.07765   0.07863   0.08032   0.09277

 Mulliken atomic charges:
              1
     1  C   -0.038486
     2  C   -0.038494
     3  C    0.039749
     4  C   -0.083963
     5  C   -0.083904
     6  C    0.039785
     7  C   -0.049726
     8  C   -0.008083
     9  C   -0.004127
    10  C   -0.042492
    11  C   -0.042426
    12  C   -0.004099
    13  C   -0.008062
    14  C   -0.049741
    15  C   -0.000863
    16  C    0.232678
    17  C   -0.156450
    18  C    0.358901
    19  C   -0.156446
    20  C    0.232687
    21  C   -0.000804
    22  C    0.035631
    23  C   -0.073888
    24  C    0.013723
    25  C    0.027573
    26  C   -0.011894
    27  C    0.015879
    28  C   -0.011896
    29  C    0.027586
    30  C    0.013778
    31  C   -0.073900
    32  C    0.035642
    33  C   -0.001049
    34  C    0.232706
    35  C   -0.156581
    36  C    0.358878
    37  C   -0.156616
    38  C    0.232670
    39  C   -0.001043
    40  C   -0.049891
    41  C   -0.008131
    42  C    0.013544
    43  C    0.027643
    44  C   -0.011932
    45  C    0.015763
    46  C   -0.011974
    47  C    0.027606
    48  C    0.013544
    49  C   -0.008148
    50  C   -0.049884
    51  C    0.039937
    52  C   -0.083910
    53  C   -0.083928
    54  C    0.039918
    55  C   -0.038312
    56  C   -0.038305
    57  C   -0.004031
    58  C   -0.042500
    59  C   -0.042488
    60  C   -0.004010
    61  O   -0.343341
 Sum of Mulliken atomic charges =   0.00000

 Dipole moment (field-independent basis, Debye):
    X=              1.2787    Y=              0.0000    Z=              0.0000  Tot=              1.2787
 Quadrupole moment (field-independent basis, Debye-Ang):
   XX=           -360.4161   YY=           -349.6382   ZZ=           -349.9222
   XY=              0.0003   XZ=              0.0000   YZ=              0.0000

  Exact polarizability: 536.949   0.000 522.430   0.000   0.000 518.907
 Approx polarizability: 773.204   0.000 751.677   0.000   0.000 744.858

 Normal termination of Gaussian 09 at Wed Feb 12 02:47:32 2014.
