 Gaussian 09, Revision C.01,
 Gaussian 09:  EM64L-G09RevC.01 23-Sep-2011

 -----------------------------------------------
 #p CAM-B3LYP/6-31+g* sp nosymm pop=chelpg polar
 -----------------------------------------------

 (Enter /apps/gaussian/g09_c01/g09/l101.exe)
 -----------------------------------------
 6-31+g* CAM-B3LYP C60O_B3LYP_631GSTAR_opt
 -----------------------------------------
 Charge =  0 Multiplicity = 1

                          Input orientation:
 ---------------------------------------------------------------------
 Center     Atomic      Atomic             Coordinates (Angstroms)
 Number     Number       Type             X           Y           Z
 ---------------------------------------------------------------------
      1          6           0        0.117939    3.484316   -0.696953
      2          6           0        0.117942    3.484190    0.697566
      3          6           0       -1.056179    3.030090    1.423661
      4          6           0       -2.183570    2.586984    0.727894
      5          6           0       -2.183572    2.587116   -0.727431
      6          6           0       -1.056182    3.030340   -1.423124
      7          6           0       -0.615245    2.307870   -2.594725
      8          6           0        0.837690    2.307910   -2.599128
      9          6           0        1.291496    3.036087   -1.425180
     10          6           0        2.420058    2.602799   -0.726710
     11          6           0        2.420063    2.602675    0.727165
     12          6           0        1.291498    3.035833    1.425711
     13          6           0        0.837697    2.307449    2.599533
     14          6           0       -0.615240    2.307412    2.595133
     15          6           0       -1.321045    1.176170    3.017317
     16          6           0       -2.501716    0.737214    2.298586
     17          6           0       -2.941917    1.452547    1.194781
     18          6           0       -3.517143    0.771340    0.000060
     19          6           0       -2.941914    1.452763   -1.194522
     20          6           0       -2.501722    0.737623   -2.298456
     21          6           0       -1.321051    1.176704   -3.017113
     22          6           0       -0.593961    0.000311   -3.462409
     23          6           0        0.801260    0.000293   -3.471025
     24          6           0        1.532339    1.176368   -3.027458
     25          6           0        2.707751    0.727433   -2.303741
     26          6           0        3.142694    1.425341   -1.175417
     27          6           0        3.591010    0.697709    0.000058
     28          6           0        3.142696    1.425134    1.175661
     29          6           0        2.707758    0.727025    2.303863
     30          6           0        1.532349    1.175833    3.027660
     31          6           0        0.801269   -0.000318    3.471024
     32          6           0       -0.593951   -0.000299    3.462409
     33          6           0       -1.321074   -1.176671    3.017107
     34          6           0       -2.501750   -0.737559    2.298466
     35          6           0       -2.941948   -1.452683    1.194526
     36          6           0       -3.517175   -0.771245   -0.000053
     37          6           0       -2.941957   -1.452466   -1.194773
     38          6           0       -2.501756   -0.737149   -2.298585
     39          6           0       -1.321083   -1.176137   -3.017305
     40          6           0       -0.615310   -2.307399   -2.595129
     41          6           0        0.837623   -2.307473   -2.599531
     42          6           0        1.532301   -1.175874   -3.027649
     43          6           0        2.707744   -0.727095   -2.303871
     44          6           0        3.142650   -1.425207   -1.175667
     45          6           0        3.590982   -0.697792   -0.000065
     46          6           0        3.142652   -1.425413    1.175408
     47          6           0        2.707748   -0.727502    2.303737
     48          6           0        1.532307   -1.176409    3.027440
     49          6           0        0.837630   -2.307932    2.599123
     50          6           0       -0.615303   -2.307858    2.594723
     51          6           0       -1.056263   -3.030320    1.423126
     52          6           0       -2.183635   -2.587054    0.727436
     53          6           0       -2.183639   -2.586925   -0.727890
     54          6           0       -1.056268   -3.030069   -1.423657
     55          6           0        0.117842   -3.484198   -0.697571
     56          6           0        0.117845   -3.484323    0.696958
     57          6           0        1.291411   -3.036126    1.425168
     58          6           0        2.419980   -2.602858    0.726702
     59          6           0        2.419979   -2.602730   -0.727167
     60          6           0        1.291405   -3.035874   -1.425706
     61          8           0       -4.711532    0.000057    0.000006
 ---------------------------------------------------------------------

 SCF Done:  E(RCAM-B3LYP) =  -2360.15683947     A.U. after   17 cycles

 Alpha  occ. eigenvalues --  -19.29373 -10.37694 -10.37675 -10.32672 -10.32672
 Alpha  occ. eigenvalues --  -10.32642 -10.32642 -10.32558 -10.32558 -10.32524
 Alpha  occ. eigenvalues --  -10.32524 -10.32437 -10.32437 -10.32437 -10.32436
 Alpha  occ. eigenvalues --  -10.32402 -10.32402 -10.32327 -10.32317 -10.32312
 Alpha  occ. eigenvalues --  -10.32310 -10.32301 -10.32300 -10.32298 -10.32292
 Alpha  occ. eigenvalues --  -10.32288 -10.32280 -10.32278 -10.32272 -10.32267
 Alpha  occ. eigenvalues --  -10.32264 -10.32264 -10.32263 -10.32260 -10.32247
 Alpha  occ. eigenvalues --  -10.32244 -10.32244 -10.32239 -10.32238 -10.32236
 Alpha  occ. eigenvalues --  -10.32234 -10.32226 -10.32220 -10.32219 -10.32217
 Alpha  occ. eigenvalues --  -10.32214 -10.32214 -10.32206 -10.32206 -10.32185
 Alpha  occ. eigenvalues --  -10.32185 -10.32178 -10.32177 -10.32127 -10.32126
 Alpha  occ. eigenvalues --  -10.32126 -10.32126 -10.32045 -10.32045 -10.32044
 Alpha  occ. eigenvalues --  -10.32044  -1.21427  -1.07075  -1.05295  -1.05242
 Alpha  occ. eigenvalues --   -1.04592  -1.01507  -1.01391  -1.01356  -1.01349
 Alpha  occ. eigenvalues --   -1.00258  -0.97420  -0.97248  -0.96954  -0.94145
 Alpha  occ. eigenvalues --   -0.93991  -0.93966  -0.92757  -0.88969  -0.88890
 Alpha  occ. eigenvalues --   -0.88819  -0.88721  -0.88167  -0.87114  -0.87108
 Alpha  occ. eigenvalues --   -0.86964  -0.85494  -0.81409  -0.81351  -0.81137
 Alpha  occ. eigenvalues --   -0.81101  -0.80110  -0.80085  -0.79778  -0.78952
 Alpha  occ. eigenvalues --   -0.75516  -0.75357  -0.74827  -0.72219  -0.71496
 Alpha  occ. eigenvalues --   -0.71457  -0.71354  -0.71333  -0.71252  -0.71203
 Alpha  occ. eigenvalues --   -0.70473  -0.68470  -0.65411  -0.64805  -0.64367
 Alpha  occ. eigenvalues --   -0.64195  -0.62895  -0.61975  -0.61869  -0.61764
 Alpha  occ. eigenvalues --   -0.61736  -0.60370  -0.60286  -0.60135  -0.58026
 Alpha  occ. eigenvalues --   -0.57841  -0.57399  -0.57093  -0.56732  -0.55350
 Alpha  occ. eigenvalues --   -0.54927  -0.54850  -0.54743  -0.54656  -0.54323
 Alpha  occ. eigenvalues --   -0.54144  -0.53861  -0.53169  -0.52759  -0.52608
 Alpha  occ. eigenvalues --   -0.52327  -0.51831  -0.51467  -0.51370  -0.50851
 Alpha  occ. eigenvalues --   -0.50367  -0.50312  -0.50036  -0.49804  -0.49751
 Alpha  occ. eigenvalues --   -0.49702  -0.49397  -0.48755  -0.48732  -0.48297
 Alpha  occ. eigenvalues --   -0.48287  -0.47901  -0.44855  -0.44675  -0.44238
 Alpha  occ. eigenvalues --   -0.43626  -0.43623  -0.43513  -0.43330  -0.42887
 Alpha  occ. eigenvalues --   -0.42771  -0.42730  -0.42660  -0.42452  -0.42397
 Alpha  occ. eigenvalues --   -0.41771  -0.41611  -0.41610  -0.41581  -0.37939
 Alpha  occ. eigenvalues --   -0.35436  -0.34070  -0.33846  -0.33718  -0.33683
 Alpha  occ. eigenvalues --   -0.33588  -0.33425  -0.33355  -0.32475  -0.29120
 Alpha  occ. eigenvalues --   -0.28296  -0.28031  -0.27954  -0.27550
 Alpha virt. eigenvalues --   -0.10492  -0.10244  -0.09436  -0.05489  -0.05183
 Alpha virt. eigenvalues --   -0.04331  -0.03908  -0.00833  -0.00818  -0.00812
 Alpha virt. eigenvalues --   -0.00530  -0.00501  -0.00376   0.00874   0.02078

 Mulliken atomic charges:
              1
     1  C   -0.033554
     2  C   -0.033571
     3  C    0.049981
     4  C   -0.133683
     5  C   -0.133581
     6  C    0.049988
     7  C   -0.057061
     8  C   -0.021885
     9  C   -0.001357
    10  C   -0.051577
    11  C   -0.051457
    12  C   -0.001353
    13  C   -0.021847
    14  C   -0.057092
    15  C   -0.032566
    16  C    0.250997
    17  C   -0.090814
    18  C    0.383748
    19  C   -0.090836
    20  C    0.251015
    21  C   -0.032506
    22  C   -0.010105
    23  C   -0.068366
    24  C    0.015069
    25  C    0.034837
    26  C   -0.014150
    27  C    0.022466
    28  C   -0.014174
    29  C    0.034873
    30  C    0.015115
    31  C   -0.068377
    32  C   -0.010099
    33  C   -0.032834
    34  C    0.251112
    35  C   -0.091058
    36  C    0.383800
    37  C   -0.091092
    38  C    0.251070
    39  C   -0.032839
    40  C   -0.057250
    41  C   -0.021915
    42  C    0.014789
    43  C    0.035005
    44  C   -0.014266
    45  C    0.022386
    46  C   -0.014315
    47  C    0.034952
    48  C    0.014784
    49  C   -0.021927
    50  C   -0.057249
    51  C    0.050162
    52  C   -0.133586
    53  C   -0.133609
    54  C    0.050144
    55  C   -0.033340
    56  C   -0.033328
    57  C   -0.001288
    58  C   -0.051533
    59  C   -0.051515
    60  C   -0.001260
    61  O   -0.312077
 Sum of Mulliken atomic charges =   0.00000

 Dipole moment (field-independent basis, Debye):
    X=              1.2384    Y=              0.0000    Z=              0.0000  Tot=              1.2384
 Quadrupole moment (field-independent basis, Debye-Ang):
   XX=           -350.8355   YY=           -340.4102   ZZ=           -340.9550
   XY=              0.0002   XZ=              0.0000   YZ=              0.0000

  Exact polarizability: 548.274   0.000 530.481   0.000   0.000 527.080
 Approx polarizability:1057.354   0.0001024.576   0.000   0.0011011.737

 Normal termination of Gaussian 09 at Wed Feb 12 05:44:25 2014.
