 Gaussian 09, Revision A.02,
 Gaussian 09:  EM64L-G09RevA.02 11-Jun-2009

 ----------------------------------------------------------------------
 #p B3LYP/6-31g* sp td(singlets,nstates=3) geom=allcheck density=curren
 t
 ----------------------------------------------------------------------

 Title Card Required
 -------------------
 Redundant internal coordinates taken from checkpoint file:
 c60_B3LYP_631GSTAR_SP_TDDFT.chk
 Charge =  0 Multiplicity = 1

                         Standard orientation:
 ---------------------------------------------------------------------
 Center     Atomic      Atomic             Coordinates (Angstroms)
 Number     Number       Type             X           Y           Z
 ---------------------------------------------------------------------
      1          6           0       -1.175815   -0.382163    3.327674
      2          6           0       -0.726639    1.000158    3.327307
      3          6           0       -1.424403    1.960635    2.593728
      4          6           0       -2.600136    1.578320    1.829664
      5          6           0       -3.031504    0.251170    1.829906
      6          6           0       -2.304859   -0.749066    2.594066
      7          6           0       -0.000030   -1.236687    3.327811
      8          6           0        1.175618   -0.382086    3.327416
      9          6           0        0.726691    1.000182    3.327658
     10          6           0        1.424741    1.960774    2.594333
     11          6           0       -0.697763    2.961197    1.830086
     12          6           0       -2.599942    2.342486    0.593544
     13          6           0       -3.031065    1.748971   -0.593483
     14          6           0       -3.480414    0.366929   -0.593510
     15          6           0       -3.480880   -0.366951    0.593578
     16          6           0       -3.031483   -1.749108    0.593637
     17          6           0       -2.304799   -1.985429    1.830056
     18          6           0       -1.176012   -2.806408    1.830573
     19          6           0        0.000033   -2.424201    2.594579
     20          6           0        2.304723   -0.748947    2.594085
     21          6           0        2.304891   -1.985303    1.830181
     22          6           0        1.176025   -2.806113    1.830335
     23          6           0        0.726749   -3.423767    0.593742
     24          6           0       -0.726637   -3.423978    0.593951
     25          6           0       -1.424104   -3.196548   -0.593244
     26          6           0       -2.600038   -2.342371   -0.593551
     27          6           0       -2.600523   -1.578472   -1.830029
     28          6           0       -3.031789   -0.251299   -1.830114
     29          6           0       -1.424227    3.196796    0.593538
     30          6           0        0.000030    1.236687   -3.327811
     31          6           0       -0.000033    2.424201   -2.594579
     32          6           0        1.176012    2.806408   -1.830573
     33          6           0        2.304799    1.985429   -1.830056
     34          6           0        2.304859    0.749066   -2.594066
     35          6           0        0.726639   -1.000158   -3.327307
     36          6           0       -0.726691   -1.000182   -3.327658
     37          6           0       -1.175618    0.382086   -3.327416
     38          6           0       -2.304723    0.748947   -2.594085
     39          6           0       -2.304891    1.985303   -1.830181
     40          6           0       -1.176025    2.806113   -1.830335
     41          6           0        0.726637    3.423978   -0.593951
     42          6           0        1.424104    3.196548    0.593244
     43          6           0        2.600038    2.342371    0.593551
     44          6           0        3.031483    1.749108   -0.593637
     45          6           0        3.480880    0.366951   -0.593578
     46          6           0        3.031504   -0.251170   -1.829906
     47          6           0        2.600136   -1.578320   -1.829664
     48          6           0        1.424403   -1.960635   -2.593728
     49          6           0       -1.424741   -1.960774   -2.594333
     50          6           0       -0.697761   -2.960708   -1.829797
     51          6           0        0.697763   -2.961197   -1.830086
     52          6           0        1.424227   -3.196796   -0.593538
     53          6           0        2.599942   -2.342486   -0.593544
     54          6           0        3.031065   -1.748971    0.593483
     55          6           0        3.480414   -0.366929    0.593510
     56          6           0        3.031789    0.251299    1.830114
     57          6           0        2.600523    1.578472    1.830029
     58          6           0       -0.726749    3.423767   -0.593742
     59          6           0        0.697761    2.960708    1.829797
     60          6           0        1.175815    0.382163   -3.327674
 ---------------------------------------------------------------------

 SCF Done:  E(RB3LYP) =  -2286.17392871     A.U. after   13 cycles

 Excitation energies and oscillator strengths:

 Excited State   1:      Singlet-AG     2.0956 eV  591.64 nm  f=0.0000  <S**2>=0.000
     177 ->182         0.31453
     177 ->183        -0.20011
     178 ->182        -0.12709
     179 ->181         0.36478
     179 ->183        -0.17044
     180 ->181        -0.31578
     180 ->182         0.21865
 This state for optimization and/or second-order correction.
 Total Energy, E(TD-HF/TD-KS) =  -2286.09691737
 Copying the excited state density for this state as the 1-particle RhoCI density.

 Excited State   2:      Singlet-AG     2.0958 eV  591.57 nm  f=0.0000  <S**2>=0.000
     176 ->181         0.12071
     176 ->182         0.11873
     177 ->182         0.14141
     178 ->181        -0.28514
     178 ->182        -0.28986
     179 ->181         0.24476
     179 ->182        -0.11456
     179 ->183         0.37054
     180 ->181         0.21978
     180 ->183         0.11851

 Excited State   3:      Singlet-AG     2.0961 eV  591.49 nm  f=0.0000  <S**2>=0.000
     176 ->181         0.34731
     176 ->182        -0.26954
     178 ->183         0.31307
     179 ->183        -0.12553
     180 ->182         0.28021
     180 ->183         0.27639

 The electronic state is 1-AG.
 Alpha  occ. eigenvalues --  -10.23177 -10.23174 -10.23172 -10.23170 -10.23165
 Alpha  occ. eigenvalues --  -10.23164 -10.23163 -10.23162 -10.23161 -10.23154
 Alpha  occ. eigenvalues --  -10.23153 -10.23152 -10.23151 -10.23150 -10.23150
 Alpha  occ. eigenvalues --  -10.23149 -10.23142 -10.23141 -10.23141 -10.23140
 Alpha  occ. eigenvalues --  -10.23138 -10.23137 -10.23137 -10.23136 -10.23136
 Alpha  occ. eigenvalues --  -10.23134 -10.23133 -10.23133 -10.23132 -10.23131
 Alpha  occ. eigenvalues --  -10.23104 -10.23104 -10.23103 -10.23100 -10.23100
 Alpha  occ. eigenvalues --  -10.23098 -10.23090 -10.23090 -10.23088 -10.23088
 Alpha  occ. eigenvalues --  -10.23087 -10.23086 -10.23086 -10.23085 -10.23082
 Alpha  occ. eigenvalues --  -10.23081 -10.23081 -10.23080 -10.23080 -10.23072
 Alpha  occ. eigenvalues --  -10.23072 -10.23071 -10.23071 -10.23062 -10.23061
 Alpha  occ. eigenvalues --  -10.23060 -10.23059 -10.23058 -10.23058 -10.23058
 Alpha  occ. eigenvalues --   -0.96800  -0.94829  -0.94828  -0.94826  -0.91049
 Alpha  occ. eigenvalues --   -0.91047  -0.91047  -0.91046  -0.91045  -0.87069
 Alpha  occ. eigenvalues --   -0.87068  -0.87065  -0.83891  -0.83889  -0.83888
 Alpha  occ. eigenvalues --   -0.83887  -0.78849  -0.78848  -0.78847  -0.78846
 Alpha  occ. eigenvalues --   -0.78845  -0.77172  -0.77171  -0.77171  -0.77169
 Alpha  occ. eigenvalues --   -0.71566  -0.71565  -0.71564  -0.71561  -0.71561
 Alpha  occ. eigenvalues --   -0.70145  -0.70144  -0.70143  -0.65855  -0.65855
 Alpha  occ. eigenvalues --   -0.65854  -0.62233  -0.62233  -0.62231  -0.62230
 Alpha  occ. eigenvalues --   -0.62230  -0.61938  -0.61936  -0.61934  -0.59338
 Alpha  occ. eigenvalues --   -0.55224  -0.55222  -0.55221  -0.55220  -0.52883
 Alpha  occ. eigenvalues --   -0.52883  -0.52881  -0.52880  -0.52877  -0.51239
 Alpha  occ. eigenvalues --   -0.51237  -0.51236  -0.48699  -0.48698  -0.48697
 Alpha  occ. eigenvalues --   -0.47914  -0.46188  -0.46187  -0.46186  -0.46186
 Alpha  occ. eigenvalues --   -0.45594  -0.45592  -0.45592  -0.44267  -0.44264
 Alpha  occ. eigenvalues --   -0.44264  -0.44262  -0.44261  -0.42959  -0.42958
 Alpha  occ. eigenvalues --   -0.42957  -0.42954  -0.41815  -0.41813  -0.41811
 Alpha  occ. eigenvalues --   -0.41138  -0.41137  -0.41137  -0.41136  -0.41135
 Alpha  occ. eigenvalues --   -0.39935  -0.39933  -0.39932  -0.39930  -0.35765
 Alpha  occ. eigenvalues --   -0.35764  -0.35763  -0.35760  -0.35760  -0.35689
 Alpha  occ. eigenvalues --   -0.35687  -0.35685  -0.34626  -0.34625  -0.34624
 Alpha  occ. eigenvalues --   -0.34622  -0.34621  -0.33743  -0.33742  -0.33741
 Alpha  occ. eigenvalues --   -0.33739  -0.26998  -0.26996  -0.26994  -0.26994
 Alpha  occ. eigenvalues --   -0.26993  -0.26871  -0.26870  -0.26869  -0.26868
 Alpha  occ. eigenvalues --   -0.22006  -0.22005  -0.22004  -0.22001  -0.21999
 Alpha virt. eigenvalues --   -0.11856  -0.11854  -0.11851  -0.07524  -0.07520
 Alpha virt. eigenvalues --   -0.07517  -0.03536  -0.03533  -0.03529  -0.03096
 Alpha virt. eigenvalues --   -0.03094  -0.03091  -0.03089  -0.03086   0.02925

 Mulliken atomic charges:
              1
     1  C   -0.003503
     2  C    0.002436
     3  C    0.000167
     4  C   -0.001004
     5  C    0.005222
     6  C   -0.002369
     7  C    0.002296
     8  C   -0.001611
     9  C   -0.000663
    10  C    0.000466
    11  C   -0.001966
    12  C   -0.001149
    13  C    0.004810
    14  C   -0.002855
    15  C   -0.003066
    16  C    0.003253
    17  C    0.001337
    18  C   -0.002754
    19  C    0.002396
    20  C    0.000466
    21  C   -0.002364
    22  C   -0.002857
    23  C    0.000856
    24  C    0.000495
    25  C    0.001542
    26  C   -0.001201
    27  C    0.000173
    28  C    0.003066
    29  C    0.000098
    30  C    0.002296
    31  C    0.002396
    32  C   -0.002754
    33  C    0.001337
    34  C   -0.002369
    35  C    0.002436
    36  C   -0.000663
    37  C   -0.001611
    38  C    0.000466
    39  C   -0.002364
    40  C   -0.002857
    41  C    0.000495
    42  C    0.001542
    43  C   -0.001201
    44  C    0.003253
    45  C   -0.003066
    46  C    0.005222
    47  C   -0.001004
    48  C    0.000167
    49  C    0.000466
    50  C   -0.001717
    51  C   -0.001966
    52  C    0.000098
    53  C   -0.001149
    54  C    0.004810
    55  C   -0.002855
    56  C    0.003066
    57  C    0.000173
    58  C    0.000856
    59  C   -0.001717
    60  C   -0.003503
 Sum of Mulliken atomic charges =   0.00000

 Dipole moment (field-independent basis, Debye):
    X=              0.0000    Y=              0.0000    Z=              0.0000  Tot=              0.0000
 Quadrupole moment (field-independent basis, Debye-Ang):
   XX=           -324.4855   YY=           -324.1031   ZZ=           -324.6700
   XY=              0.0084   XZ=             -0.0187   YZ=              0.4893

 Normal termination of Gaussian 09 at Wed Jun 15 03:36:27 2011.
