 Gaussian 09, Revision A.02,
 Gaussian 09:  EM64L-G09RevA.02 11-Jun-2009

 ------------------------------------------------
 #p sp guess=read b3lyp/6-31g* geom=AllCheckpoint
 ------------------------------------------------

 Title Card Required
 -------------------
 Redundant internal coordinates taken from checkpoint file:
 c60_B3LYP_631Gstarenergy.chk
 Charge =  0 Multiplicity = 1

                         Standard orientation:
 ---------------------------------------------------------------------
 Center     Atomic      Atomic             Coordinates (Angstroms)
 Number     Number       Type             X           Y           Z
 ---------------------------------------------------------------------
      1          6           0       -1.175908   -0.382289    3.327974
      2          6           0       -0.726723    1.000068    3.327734
      3          6           0       -1.424240    1.960105    2.593647
      4          6           0       -2.599674    1.577974    1.829291
      5          6           0       -3.031159    0.251191    1.829668
      6          6           0       -2.304756   -0.748997    2.594224
      7          6           0       -0.000002   -1.236691    3.328191
      8          6           0        1.175905   -0.382286    3.327965
      9          6           0        0.726721    1.000069    3.327735
     10          6           0        1.424239    1.960105    2.593644
     11          6           0       -0.697599    2.960524    1.829710
     12          6           0       -2.600175    2.342645    0.593296
     13          6           0       -3.031939    1.749468   -0.593637
     14          6           0       -3.480221    0.366816   -0.593329
     15          6           0       -3.480239   -0.366820    0.593330
     16          6           0       -3.031932   -1.749470    0.593638
     17          6           0       -2.304727   -1.985170    1.829855
     18          6           0       -1.175870   -2.805117    1.829864
     19          6           0        0.000000   -2.423432    2.594203
     20          6           0        2.304759   -0.749005    2.594233
     21          6           0        2.304721   -1.985168    1.829852
     22          6           0        1.175879   -2.805127    1.829872
     23          6           0        0.726773   -3.423738    0.593658
     24          6           0       -0.726772   -3.423738    0.593661
     25          6           0       -1.424261   -3.196906   -0.593260
     26          6           0       -2.600184   -2.342652   -0.593297
     27          6           0       -2.599672   -1.577970   -1.829287
     28          6           0       -3.031162   -0.251191   -1.829670
     29          6           0       -1.424261    3.196912    0.593262
     30          6           0        0.000002    1.236691   -3.328191
     31          6           0        0.000000    2.423432   -2.594203
     32          6           0        1.175870    2.805117   -1.829864
     33          6           0        2.304727    1.985170   -1.829855
     34          6           0        2.304756    0.748997   -2.594224
     35          6           0        0.726723   -1.000068   -3.327734
     36          6           0       -0.726721   -1.000069   -3.327735
     37          6           0       -1.175905    0.382286   -3.327965
     38          6           0       -2.304759    0.749005   -2.594233
     39          6           0       -2.304721    1.985168   -1.829852
     40          6           0       -1.175879    2.805127   -1.829872
     41          6           0        0.726772    3.423738   -0.593661
     42          6           0        1.424261    3.196906    0.593260
     43          6           0        2.600184    2.342652    0.593297
     44          6           0        3.031932    1.749470   -0.593638
     45          6           0        3.480239    0.366820   -0.593330
     46          6           0        3.031159   -0.251191   -1.829668
     47          6           0        2.599674   -1.577974   -1.829291
     48          6           0        1.424240   -1.960105   -2.593647
     49          6           0       -1.424239   -1.960105   -2.593644
     50          6           0       -0.697600   -2.960522   -1.829710
     51          6           0        0.697599   -2.960524   -1.829710
     52          6           0        1.424261   -3.196912   -0.593262
     53          6           0        2.600175   -2.342645   -0.593296
     54          6           0        3.031939   -1.749468    0.593637
     55          6           0        3.480221   -0.366816    0.593329
     56          6           0        3.031162    0.251191    1.829670
     57          6           0        2.599672    1.577970    1.829287
     58          6           0       -0.726773    3.423738   -0.593658
     59          6           0        0.697600    2.960522    1.829710
     60          6           0        1.175908    0.382289   -3.327974
 ---------------------------------------------------------------------

 SCF Done:  E(RB3LYP) =  -2286.17393324     A.U. after    1 cycles

 The electronic state is 1-AG.
 Alpha  occ. eigenvalues --  -10.23173 -10.23170 -10.23167 -10.23167 -10.23161
 Alpha  occ. eigenvalues --  -10.23160 -10.23159 -10.23158 -10.23158 -10.23149
 Alpha  occ. eigenvalues --  -10.23149 -10.23148 -10.23148 -10.23147 -10.23145
 Alpha  occ. eigenvalues --  -10.23145 -10.23137 -10.23137 -10.23137 -10.23136
 Alpha  occ. eigenvalues --  -10.23135 -10.23134 -10.23133 -10.23132 -10.23131
 Alpha  occ. eigenvalues --  -10.23129 -10.23129 -10.23129 -10.23129 -10.23126
 Alpha  occ. eigenvalues --  -10.23101 -10.23100 -10.23098 -10.23096 -10.23096
 Alpha  occ. eigenvalues --  -10.23095 -10.23086 -10.23085 -10.23085 -10.23083
 Alpha  occ. eigenvalues --  -10.23083 -10.23082 -10.23082 -10.23081 -10.23078
 Alpha  occ. eigenvalues --  -10.23077 -10.23077 -10.23075 -10.23075 -10.23069
 Alpha  occ. eigenvalues --  -10.23068 -10.23067 -10.23066 -10.23058 -10.23057
 Alpha  occ. eigenvalues --  -10.23056 -10.23055 -10.23054 -10.23054 -10.23053
 Alpha  occ. eigenvalues --   -0.96803  -0.94832  -0.94831  -0.94829  -0.91050
 Alpha  occ. eigenvalues --   -0.91050  -0.91050  -0.91049  -0.91047  -0.87067
 Alpha  occ. eigenvalues --   -0.87066  -0.87065  -0.83896  -0.83895  -0.83894
 Alpha  occ. eigenvalues --   -0.83893  -0.78850  -0.78849  -0.78849  -0.78848
 Alpha  occ. eigenvalues --   -0.78848  -0.77177  -0.77177  -0.77175  -0.77175
 Alpha  occ. eigenvalues --   -0.71569  -0.71569  -0.71567  -0.71566  -0.71563
 Alpha  occ. eigenvalues --   -0.70143  -0.70143  -0.70142  -0.65861  -0.65860
 Alpha  occ. eigenvalues --   -0.65858  -0.62240  -0.62239  -0.62237  -0.62236
 Alpha  occ. eigenvalues --   -0.62233  -0.61934  -0.61933  -0.61930  -0.59340
 Alpha  occ. eigenvalues --   -0.55222  -0.55222  -0.55222  -0.55221  -0.52882
 Alpha  occ. eigenvalues --   -0.52881  -0.52881  -0.52880  -0.52878  -0.51239
 Alpha  occ. eigenvalues --   -0.51238  -0.51235  -0.48704  -0.48704  -0.48703
 Alpha  occ. eigenvalues --   -0.47917  -0.46186  -0.46185  -0.46184  -0.46184
 Alpha  occ. eigenvalues --   -0.45597  -0.45596  -0.45593  -0.44267  -0.44267
 Alpha  occ. eigenvalues --   -0.44267  -0.44263  -0.44262  -0.42962  -0.42961
 Alpha  occ. eigenvalues --   -0.42960  -0.42959  -0.41809  -0.41808  -0.41808
 Alpha  occ. eigenvalues --   -0.41140  -0.41139  -0.41138  -0.41138  -0.41136
 Alpha  occ. eigenvalues --   -0.39937  -0.39934  -0.39934  -0.39931  -0.35762
 Alpha  occ. eigenvalues --   -0.35762  -0.35760  -0.35759  -0.35758  -0.35687
 Alpha  occ. eigenvalues --   -0.35685  -0.35685  -0.34623  -0.34622  -0.34621
 Alpha  occ. eigenvalues --   -0.34620  -0.34619  -0.33746  -0.33745  -0.33744
 Alpha  occ. eigenvalues --   -0.33744  -0.26998  -0.26997  -0.26996  -0.26994
 Alpha  occ. eigenvalues --   -0.26993  -0.26873  -0.26873  -0.26872  -0.26871
 Alpha  occ. eigenvalues --   -0.22008  -0.22006  -0.22006  -0.22003  -0.22000
 Alpha virt. eigenvalues --   -0.11851  -0.11846  -0.11845  -0.07516  -0.07516
 Alpha virt. eigenvalues --   -0.07508  -0.03535  -0.03533  -0.03526  -0.03094
 Alpha virt. eigenvalues --   -0.03094  -0.03092  -0.03089  -0.03083   0.02927

 Mulliken atomic charges:
              1
     1  C    0.000115
     2  C   -0.000061
     3  C    0.000171
     4  C    0.000374
     5  C   -0.000239
     6  C    0.000026
     7  C   -0.000458
     8  C    0.000119
     9  C   -0.000060
    10  C    0.000171
    11  C   -0.000102
    12  C   -0.000102
    13  C   -0.000367
    14  C    0.000243
    15  C    0.000236
    16  C   -0.000371
    17  C   -0.000029
    18  C    0.000140
    19  C    0.000147
    20  C    0.000020
    21  C   -0.000029
    22  C    0.000136
    23  C   -0.000099
    24  C   -0.000093
    25  C    0.000085
    26  C   -0.000100
    27  C    0.000373
    28  C   -0.000240
    29  C    0.000090
    30  C   -0.000458
    31  C    0.000147
    32  C    0.000140
    33  C   -0.000029
    34  C    0.000026
    35  C   -0.000061
    36  C   -0.000060
    37  C    0.000119
    38  C    0.000020
    39  C   -0.000029
    40  C    0.000136
    41  C   -0.000093
    42  C    0.000085
    43  C   -0.000100
    44  C   -0.000371
    45  C    0.000236
    46  C   -0.000239
    47  C    0.000374
    48  C    0.000171
    49  C    0.000171
    50  C   -0.000098
    51  C   -0.000102
    52  C    0.000090
    53  C   -0.000102
    54  C   -0.000367
    55  C    0.000243
    56  C   -0.000240
    57  C    0.000373
    58  C   -0.000099
    59  C   -0.000098
    60  C    0.000115
 Sum of Mulliken atomic charges =   0.00000

 Dipole moment (field-independent basis, Debye):
    X=              0.0000    Y=              0.0000    Z=              0.0000  Tot=              0.0000
 Quadrupole moment (field-independent basis, Debye-Ang):
   XX=           -324.1102   YY=           -324.1003   ZZ=           -324.1181
   XY=              0.0000   XZ=              0.0000   YZ=              0.0004

 Normal termination of Gaussian 09 at Fri Mar 18 21:12:09 2011.
