 Gaussian 09, Revision A.02,
 Gaussian 09:  EM64L-G09RevA.02 11-Jun-2009

 ------------------------------------------------------
 #p sp B3LYP/6-31g* geom=allcheck guess=read pop=chelpg
 ------------------------------------------------------

 Title Card Required
 -------------------
 Redundant internal coordinates taken from checkpoint file:
 Chelpg_P3HT_12_cation_B3LYP_631GSTAR.chk
 Charge =  1 Multiplicity = 2

                         Standard orientation:
 ---------------------------------------------------------------------
 Center     Atomic      Atomic             Coordinates (Angstroms)
 Number     Number       Type             X           Y           Z
 ---------------------------------------------------------------------
      1          6           0        3.219519   -0.185205    0.000399
      2          6           0        2.652599   -1.459164    0.000424
      3          6           0        1.253261   -1.457390    0.000480
      4          6           0        0.689326   -0.182358    0.000499
      5         16           0        1.956058    1.038331    0.000562
      6          1           0        3.247767   -2.365887    0.000359
      7          1           0        0.656122   -2.362894    0.000464
      8          6           0        4.599283    0.175906    0.000288
      9          6           0        5.167227    1.448620    0.000197
     10         16           0        5.862506   -1.048938    0.000248
     11          6           0        6.566912    1.446117    0.000090
     12          1           0        4.573173    2.356229    0.000197
     13          6           0        7.129501    0.170312    0.000098
     14          1           0        7.165148    2.350747    0.000000
     15          6           0        8.508563   -0.195800    0.000003
     16          6           0        9.072346   -1.469319   -0.000055
     17         16           0        9.776020    1.025266   -0.000075
     18          6           0       10.472884   -1.471165   -0.000141
     19          1           0        8.475881   -2.375433   -0.000036
     20          6           0       11.038720   -0.197489   -0.000151
     21          1           0       11.068557   -2.377401   -0.000193
     22          6           0       12.420396    0.164923   -0.000223
     23          6           0       12.989508    1.434085   -0.000282
     24         16           0       13.682398   -1.062037   -0.000301
     25          6           0       14.392084    1.428920   -0.000279
     26          1           0       12.397974    2.343518   -0.000284
     27          6           0       14.950129    0.153804   -0.000225
     28          1           0       14.992334    2.332076   -0.000277
     29          6           0       16.332642   -0.219173   -0.000152
     30          6           0       16.892832   -1.488698   -0.000108
     31         16           0       17.601719    0.999792   -0.000066
     32          6           0       18.299405   -1.490099   -0.000097
     33          1           0       16.297496   -2.395720   -0.000123
     34          6           0       18.860947   -0.221397   -0.000133
     35          1           0       18.895034   -2.396315   -0.000103
     36          6           0       20.253358    0.149191   -0.000187
     37          6           0       20.816699    1.412328   -0.000233
     38         16           0       21.514697   -1.075373   -0.000208
     39          6           0       22.235614    1.400109   -0.000267
     40          1           0       20.226580    2.322833   -0.000236
     41          6           0       22.754909    0.131842   -0.000242
     42          1           0       22.846857    2.295422   -0.000299
     43          1           0       23.794534   -0.167092   -0.000250
     44          6           0       -0.689326    0.182358    0.000499
     45          6           0       -1.253261    1.457390    0.000481
     46         16           0       -1.956058   -1.038331    0.000561
     47          6           0       -2.652598    1.459164    0.000424
     48          1           0       -0.656122    2.362894    0.000465
     49          6           0       -3.219519    0.185205    0.000398
     50          1           0       -3.247767    2.365887    0.000360
     51          6           0       -4.599283   -0.175906    0.000288
     52          6           0       -5.167227   -1.448620    0.000196
     53         16           0       -5.862506    1.048938    0.000248
     54          6           0       -6.566912   -1.446117    0.000088
     55          1           0       -4.573173   -2.356229    0.000196
     56          6           0       -7.129501   -0.170312    0.000097
     57          1           0       -7.165148   -2.350747   -0.000002
     58          6           0       -8.508563    0.195800    0.000002
     59          6           0       -9.072346    1.469319   -0.000055
     60         16           0       -9.776020   -1.025266   -0.000076
     61          6           0      -10.472884    1.471165   -0.000141
     62          1           0       -8.475881    2.375433   -0.000035
     63          6           0      -11.038720    0.197489   -0.000151
     64          1           0      -11.068557    2.377401   -0.000192
     65          6           0      -12.420396   -0.164923   -0.000224
     66          6           0      -12.989508   -1.434085   -0.000283
     67         16           0      -13.682398    1.062037   -0.000300
     68          6           0      -14.392084   -1.428920   -0.000280
     69          1           0      -12.397974   -2.343518   -0.000286
     70          6           0      -14.950129   -0.153804   -0.000225
     71          1           0      -14.992334   -2.332076   -0.000279
     72          6           0      -16.332642    0.219173   -0.000152
     73          6           0      -16.892832    1.488698   -0.000107
     74         16           0      -17.601719   -0.999792   -0.000066
     75          6           0      -18.299405    1.490099   -0.000096
     76          1           0      -16.297496    2.395720   -0.000122
     77          6           0      -18.860947    0.221397   -0.000133
     78          1           0      -18.895034    2.396315   -0.000101
     79          6           0      -20.253358   -0.149191   -0.000186
     80          6           0      -20.816699   -1.412328   -0.000234
     81         16           0      -21.514697    1.075373   -0.000207
     82          6           0      -22.235614   -1.400109   -0.000267
     83          1           0      -20.226580   -2.322833   -0.000237
     84          6           0      -22.754909   -0.131842   -0.000241
     85          1           0      -22.846857   -2.295422   -0.000299
     86          1           0      -23.794534    0.167092   -0.000248
 ---------------------------------------------------------------------

 SCF Done:  E(UB3LYP) =  -6622.77405331     A.U. after    1 cycles

 The electronic state is 2-A.
 Alpha  occ. eigenvalues --  -88.98919 -88.98919 -88.98767 -88.98767 -88.98455
 Alpha  occ. eigenvalues --  -88.98455 -88.97956 -88.97956 -88.97269 -88.97269
 Alpha  occ. eigenvalues --  -88.96450 -88.96450 -10.31736 -10.31736 -10.31724
 Alpha  occ. eigenvalues --  -10.31680 -10.31611 -10.31611 -10.31509 -10.31509
 Alpha  occ. eigenvalues --  -10.31312 -10.31312 -10.31139 -10.31139 -10.30799
 Alpha  occ. eigenvalues --  -10.30799 -10.30559 -10.30559 -10.29997 -10.29997
 Alpha  occ. eigenvalues --  -10.29754 -10.29754 -10.28699 -10.28699 -10.28185
 Alpha  occ. eigenvalues --  -10.28185 -10.28107 -10.28107 -10.28077 -10.28077
 Alpha  occ. eigenvalues --  -10.27895 -10.27895 -10.27799 -10.27799 -10.27490
 Alpha  occ. eigenvalues --  -10.27490 -10.27332 -10.27332 -10.27318 -10.27318
 Alpha  occ. eigenvalues --  -10.26874 -10.26874 -10.26568 -10.26568 -10.26009
 Alpha  occ. eigenvalues --  -10.26009 -10.25399 -10.25399 -10.24946 -10.24946
 Alpha  occ. eigenvalues --   -8.05025  -8.05024  -8.04872  -8.04872  -8.04560
 Alpha  occ. eigenvalues --   -8.04560  -8.04062  -8.04062  -8.03375  -8.03375
 Alpha  occ. eigenvalues --   -8.02565  -8.02565  -6.01466  -6.01464  -6.01313
 Alpha  occ. eigenvalues --   -6.01313  -6.01093  -6.01092  -6.01000  -6.01000
 Alpha  occ. eigenvalues --   -6.00940  -6.00940  -6.00647  -6.00647  -6.00628
 Alpha  occ. eigenvalues --   -6.00628  -6.00500  -6.00500  -6.00496  -6.00496
 Alpha  occ. eigenvalues --   -6.00185  -6.00185  -6.00128  -6.00128  -5.99810
 Alpha  occ. eigenvalues --   -5.99810  -5.99692  -5.99692  -5.99438  -5.99438
 Alpha  occ. eigenvalues --   -5.99015  -5.99015  -5.98979  -5.98979  -5.98603
 Alpha  occ. eigenvalues --   -5.98603  -5.98252  -5.98252  -0.98492  -0.98031
 Alpha  occ. eigenvalues --   -0.97561  -0.97085  -0.96601  -0.96104  -0.95589
 Alpha  occ. eigenvalues --   -0.95072  -0.94494  -0.94238  -0.92946  -0.92934
 Alpha  occ. eigenvalues --   -0.87886  -0.86848  -0.85822  -0.84808  -0.83848
 Alpha  occ. eigenvalues --   -0.83007  -0.82963  -0.82442  -0.82309  -0.81879
 Alpha  occ. eigenvalues --   -0.81718  -0.81407  -0.81237  -0.80631  -0.80615
 Alpha  occ. eigenvalues --   -0.80508  -0.79635  -0.79075  -0.78849  -0.78198
 Alpha  occ. eigenvalues --   -0.77118  -0.76138  -0.74950  -0.74819  -0.70766
 Alpha  occ. eigenvalues --   -0.70085  -0.69344  -0.68578  -0.67786  -0.66973
 Alpha  occ. eigenvalues --   -0.66147  -0.65322  -0.64522  -0.63694  -0.63243
 Alpha  occ. eigenvalues --   -0.61918  -0.61622  -0.61453  -0.61090  -0.61045
 Alpha  occ. eigenvalues --   -0.60668  -0.60638  -0.60420  -0.60368  -0.60231
 Alpha  occ. eigenvalues --   -0.59740  -0.59569  -0.59145  -0.59092  -0.58774
 Alpha  occ. eigenvalues --   -0.58149  -0.57629  -0.56577  -0.55198  -0.53927
 Alpha  occ. eigenvalues --   -0.53096  -0.52648  -0.52600  -0.51556  -0.51553
 Alpha  occ. eigenvalues --   -0.50068  -0.50067  -0.49521  -0.49332  -0.49276
 Alpha  occ. eigenvalues --   -0.49003  -0.48812  -0.48717  -0.48469  -0.48343
 Alpha  occ. eigenvalues --   -0.48275  -0.47919  -0.47646  -0.47645  -0.47345
 Alpha  occ. eigenvalues --   -0.46987  -0.46970  -0.46730  -0.46617  -0.46558
 Alpha  occ. eigenvalues --   -0.46458  -0.46188  -0.46059  -0.45985  -0.45777
 Alpha  occ. eigenvalues --   -0.45387  -0.45322  -0.45307  -0.45268  -0.44815
 Alpha  occ. eigenvalues --   -0.44517  -0.44436  -0.44026  -0.43770  -0.43383
 Alpha  occ. eigenvalues --   -0.42966  -0.42579  -0.42489  -0.42285  -0.42169
 Alpha  occ. eigenvalues --   -0.41798  -0.41501  -0.41320  -0.41024  -0.41009
 Alpha  occ. eigenvalues --   -0.40383  -0.40383  -0.39395  -0.39380  -0.39380
 Alpha  occ. eigenvalues --   -0.37975  -0.36600  -0.35222  -0.34258  -0.34108
 Alpha  occ. eigenvalues --   -0.33723  -0.33706  -0.33342  -0.33220  -0.33020
 Alpha  occ. eigenvalues --   -0.32754  -0.32656  -0.32052  -0.31962  -0.31848
 Alpha  occ. eigenvalues --   -0.30749  -0.30749  -0.30444  -0.28881  -0.27319
 Alpha  occ. eigenvalues --   -0.25836  -0.24353  -0.23847
 Alpha virt. eigenvalues --   -0.16545  -0.15080  -0.13669  -0.12297  -0.10948
 Alpha virt. eigenvalues --   -0.09621  -0.08315  -0.07034  -0.06363  -0.06360
 Alpha virt. eigenvalues --   -0.05862  -0.05850  -0.05783  -0.05501  -0.05430

  Beta  occ. eigenvalues --  -88.98928 -88.98928 -88.98776 -88.98776 -88.98463
  Beta  occ. eigenvalues --  -88.98463 -88.97962 -88.97962 -88.97272 -88.97272
  Beta  occ. eigenvalues --  -88.96449 -88.96449 -10.31680 -10.31680 -10.31674
  Beta  occ. eigenvalues --  -10.31631 -10.31548 -10.31548 -10.31467 -10.31467
  Beta  occ. eigenvalues --  -10.31242 -10.31242 -10.31107 -10.31107 -10.30724
  Beta  occ. eigenvalues --  -10.30724 -10.30543 -10.30543 -10.29927 -10.29927
  Beta  occ. eigenvalues --  -10.29755 -10.29755 -10.28711 -10.28711 -10.28142
  Beta  occ. eigenvalues --  -10.28142 -10.28068 -10.28068 -10.28030 -10.28030
  Beta  occ. eigenvalues --  -10.27863 -10.27863 -10.27749 -10.27749 -10.27468
  Beta  occ. eigenvalues --  -10.27468 -10.27289 -10.27289 -10.27265 -10.27265
  Beta  occ. eigenvalues --  -10.26865 -10.26865 -10.26518 -10.26518 -10.26014
  Beta  occ. eigenvalues --  -10.26014 -10.25363 -10.25363 -10.24956 -10.24956
  Beta  occ. eigenvalues --   -8.05033  -8.05032  -8.04881  -8.04881  -8.04567
  Beta  occ. eigenvalues --   -8.04567  -8.04068  -8.04068  -8.03378  -8.03378
  Beta  occ. eigenvalues --   -8.02563  -8.02563  -6.01474  -6.01472  -6.01320
  Beta  occ. eigenvalues --   -6.01320  -6.01100  -6.01099  -6.01007  -6.01007
  Beta  occ. eigenvalues --   -6.00947  -6.00947  -6.00670  -6.00670  -6.00634
  Beta  occ. eigenvalues --   -6.00634  -6.00518  -6.00518  -6.00506  -6.00506
  Beta  occ. eigenvalues --   -6.00206  -6.00206  -6.00133  -6.00133  -5.99814
  Beta  occ. eigenvalues --   -5.99814  -5.99707  -5.99707  -5.99441  -5.99441
  Beta  occ. eigenvalues --   -5.99022  -5.99022  -5.98979  -5.98979  -5.98603
  Beta  occ. eigenvalues --   -5.98603  -5.98247  -5.98247  -0.98368  -0.97911
  Beta  occ. eigenvalues --   -0.97446  -0.96975  -0.96496  -0.96003  -0.95490
  Beta  occ. eigenvalues --   -0.94971  -0.94398  -0.94129  -0.92884  -0.92872
  Beta  occ. eigenvalues --   -0.87736  -0.86706  -0.85687  -0.84680  -0.83728
  Beta  occ. eigenvalues --   -0.82924  -0.82903  -0.82404  -0.82224  -0.81840
  Beta  occ. eigenvalues --   -0.81648  -0.81350  -0.81196  -0.80580  -0.80564
  Beta  occ. eigenvalues --   -0.80455  -0.79571  -0.79030  -0.78798  -0.78103
  Beta  occ. eigenvalues --   -0.76993  -0.75968  -0.74814  -0.74645  -0.70733
  Beta  occ. eigenvalues --   -0.70023  -0.69270  -0.68498  -0.67704  -0.66890
  Beta  occ. eigenvalues --   -0.66064  -0.65240  -0.64439  -0.63616  -0.63151
  Beta  occ. eigenvalues --   -0.61849  -0.61563  -0.61403  -0.61032  -0.60994
  Beta  occ. eigenvalues --   -0.60620  -0.60580  -0.60373  -0.60315  -0.60180
  Beta  occ. eigenvalues --   -0.59699  -0.59523  -0.59109  -0.59058  -0.58730
  Beta  occ. eigenvalues --   -0.58117  -0.57592  -0.56523  -0.55138  -0.53863
  Beta  occ. eigenvalues --   -0.53034  -0.52598  -0.52557  -0.51523  -0.51519
  Beta  occ. eigenvalues --   -0.50034  -0.50033  -0.49293  -0.49237  -0.49221
  Beta  occ. eigenvalues --   -0.48768  -0.48711  -0.48662  -0.48289  -0.48226
  Beta  occ. eigenvalues --   -0.48187  -0.47649  -0.47610  -0.47610  -0.47084
  Beta  occ. eigenvalues --   -0.46948  -0.46931  -0.46569  -0.46513  -0.46474
  Beta  occ. eigenvalues --   -0.46414  -0.46147  -0.45947  -0.45803  -0.45746
  Beta  occ. eigenvalues --   -0.45363  -0.45279  -0.45239  -0.45062  -0.44795
  Beta  occ. eigenvalues --   -0.44411  -0.44253  -0.44014  -0.43482  -0.43369
  Beta  occ. eigenvalues --   -0.42948  -0.42561  -0.42283  -0.42152  -0.42059
  Beta  occ. eigenvalues --   -0.41783  -0.41487  -0.41310  -0.41014  -0.40999
  Beta  occ. eigenvalues --   -0.40373  -0.40373  -0.39370  -0.39370  -0.38918
  Beta  occ. eigenvalues --   -0.37521  -0.36152  -0.34759  -0.34186  -0.33925
  Beta  occ. eigenvalues --   -0.33603  -0.33471  -0.33152  -0.33115  -0.32910
  Beta  occ. eigenvalues --   -0.32622  -0.32563  -0.31884  -0.31867  -0.31525
  Beta  occ. eigenvalues --   -0.30670  -0.30669  -0.29943  -0.28292  -0.26620
  Beta  occ. eigenvalues --   -0.24965  -0.23315
  Beta virt. eigenvalues --   -0.21749  -0.16301  -0.14734  -0.13307  -0.11934
  Beta virt. eigenvalues --   -0.10588  -0.09263  -0.07959  -0.06680  -0.06336
  Beta virt. eigenvalues --   -0.06334  -0.05832  -0.05821  -0.05471  -0.05429

 Mulliken atomic charges:
              1
     1  C   -0.141889
     2  C   -0.138281
     3  C   -0.137329
     4  C   -0.143425
     5  S    0.301297
     6  H    0.175185
     7  H    0.174864
     8  C   -0.144968
     9  C   -0.136615
    10  S    0.300746
    11  C   -0.139457
    12  H    0.174182
    13  C   -0.140325
    14  H    0.175111
    15  C   -0.146602
    16  C   -0.136143
    17  S    0.299511
    18  C   -0.141131
    19  H    0.173063
    20  C   -0.138305
    21  H    0.174685
    22  C   -0.148683
    23  C   -0.136168
    24  S    0.297760
    25  C   -0.143210
    26  H    0.171137
    27  C   -0.135902
    28  H    0.173386
    29  C   -0.152032
    30  C   -0.136737
    31  S    0.294972
    32  C   -0.146067
    33  H    0.168451
    34  C   -0.123388
    35  H    0.171440
    36  C   -0.162726
    37  C   -0.133961
    38  S    0.291911
    39  C   -0.096386
    40  H    0.162766
    41  C   -0.334061
    42  H    0.161173
    43  H    0.192153
    44  C   -0.143425
    45  C   -0.137329
    46  S    0.301297
    47  C   -0.138281
    48  H    0.174864
    49  C   -0.141889
    50  H    0.175185
    51  C   -0.144968
    52  C   -0.136615
    53  S    0.300746
    54  C   -0.139457
    55  H    0.174182
    56  C   -0.140325
    57  H    0.175111
    58  C   -0.146602
    59  C   -0.136143
    60  S    0.299511
    61  C   -0.141131
    62  H    0.173063
    63  C   -0.138305
    64  H    0.174685
    65  C   -0.148683
    66  C   -0.136168
    67  S    0.297760
    68  C   -0.143210
    69  H    0.171137
    70  C   -0.135902
    71  H    0.173386
    72  C   -0.152032
    73  C   -0.136737
    74  S    0.294972
    75  C   -0.146067
    76  H    0.168451
    77  C   -0.123388
    78  H    0.171440
    79  C   -0.162726
    80  C   -0.133961
    81  S    0.291911
    82  C   -0.096386
    83  H    0.162766
    84  C   -0.334061
    85  H    0.161173
    86  H    0.192153
 Sum of Mulliken atomic charges =   1.00000

 Dipole moment (field-independent basis, Debye):
    X=              0.0000    Y=              0.0000    Z=             -0.0003  Tot=              0.0003
 Quadrupole moment (field-independent basis, Debye-Ang):
   XX=            549.7856   YY=           -371.6252   ZZ=           -444.4863
   XY=             16.6965   XZ=              0.0000   YZ=              0.0000

 Normal termination of Gaussian 09 at Sun Jul 24 23:28:59 2011.
