 Gaussian 09, Revision A.02,
 Gaussian 09:  EM64L-G09RevA.02 11-Jun-2009

 -------------------------------------------------------
 #p sp B3LYP/6-31g* td(singlets,nstates=3) geom=allcheck
 -------------------------------------------------------

 Title Card Required
 -------------------
 Redundant internal coordinates taken from checkpoint file:
 P3HT_4_B3LYP_631GSTAR_TDDFT.chk
 Charge =  0 Multiplicity = 1

                         Standard orientation:
 ---------------------------------------------------------------------
 Center     Atomic      Atomic             Coordinates (Angstroms)
 Number     Number       Type             X           Y           Z
 ---------------------------------------------------------------------
      1          6           0       -0.042178    4.627348    0.000000
      2          6           0       -1.285819    5.225024    0.000000
      3          6           0       -1.235643    6.647003    0.000000
      4          6           0        0.042178    7.134537    0.000000
      5         16           0        1.215720    5.856004    0.000000
      6          1           0       -2.211503    4.659117    0.000000
      7          1           0       -2.116695    7.279419    0.000000
      8          1           0        0.369869    8.165270    0.000000
      9          6           0        0.294108    3.220792    0.000000
     10          6           0        1.537329    2.621779    0.000000
     11         16           0       -0.965493    1.994994    0.000000
     12          6           0        1.492458    1.207651    0.000000
     13          1           0        2.463278    3.187138    0.000000
     14          6           0        0.212518    0.689214    0.000000
     15          1           0        2.380808    0.584851    0.000000
     16          6           0       -0.212518   -0.689214    0.000000
     17          6           0       -1.492458   -1.207651    0.000000
     18         16           0        0.965493   -1.994994    0.000000
     19          6           0       -1.537329   -2.621779    0.000000
     20          1           0       -2.380808   -0.584851    0.000000
     21          6           0       -0.294108   -3.220792    0.000000
     22          1           0       -2.463278   -3.187138    0.000000
     23          6           0        0.042178   -4.627348    0.000000
     24          6           0        1.285819   -5.225024    0.000000
     25         16           0       -1.215720   -5.856004    0.000000
     26          6           0        1.235643   -6.647003    0.000000
     27          1           0        2.211503   -4.659117    0.000000
     28          6           0       -0.042178   -7.134537    0.000000
     29          1           0        2.116695   -7.279419    0.000000
     30          1           0       -0.369869   -8.165270    0.000000
 ---------------------------------------------------------------------

 SCF Done:  E(RB3LYP) =  -2208.44682423     A.U. after   15 cycles

 Excitation energies and oscillator strengths:

 Excited State   1:      Singlet-BU     2.8426 eV  436.16 nm  f=1.2168  <S**2>=0.000
      85 -> 86         0.70831
 This state for optimization and/or second-order correction.
 Total Energy, E(TD-HF/TD-KS) =  -2208.34235879
 Copying the excited state density for this state as the 1-particle RhoCI density.

 Excited State   2:      Singlet-AG     3.5142 eV  352.80 nm  f=0.0000  <S**2>=0.000
      84 -> 86        -0.43604
      85 -> 87         0.54758

 Excited State   3:      Singlet-AG     3.9601 eV  313.09 nm  f=0.0000  <S**2>=0.000
      84 -> 86         0.54927
      85 -> 87         0.42425

 The electronic state is 1-AG.
 Alpha  occ. eigenvalues --  -88.91091 -88.91091 -88.91090 -88.91090 -10.23449
 Alpha  occ. eigenvalues --  -10.23430 -10.23430 -10.23411 -10.23251 -10.23251
 Alpha  occ. eigenvalues --  -10.21891 -10.21891 -10.19974 -10.19974 -10.19919
 Alpha  occ. eigenvalues --  -10.19919 -10.19807 -10.19807 -10.19733 -10.19733
 Alpha  occ. eigenvalues --   -7.97207  -7.97207  -7.97198  -7.97196  -5.93632
 Alpha  occ. eigenvalues --   -5.93630  -5.93623  -5.93623  -5.93262  -5.93261
 Alpha  occ. eigenvalues --   -5.93252  -5.93252  -5.92888  -5.92888  -5.92843
 Alpha  occ. eigenvalues --   -5.92843  -0.90201  -0.89231  -0.87896  -0.86696
 Alpha  occ. eigenvalues --   -0.78788  -0.76091  -0.74595  -0.74470  -0.73330
 Alpha  occ. eigenvalues --   -0.73317  -0.71299  -0.68613  -0.61811  -0.60223
 Alpha  occ. eigenvalues --   -0.58181  -0.56408  -0.55124  -0.53365  -0.52910
 Alpha  occ. eigenvalues --   -0.52892  -0.52501  -0.50823  -0.47156  -0.45030
 Alpha  occ. eigenvalues --   -0.42005  -0.41602  -0.41291  -0.41179  -0.41106
 Alpha  occ. eigenvalues --   -0.39969  -0.39931  -0.39816  -0.38481  -0.38277
 Alpha  occ. eigenvalues --   -0.38067  -0.37081  -0.36044  -0.35735  -0.34574
 Alpha  occ. eigenvalues --   -0.33848  -0.33435  -0.30132  -0.26529  -0.26107
 Alpha  occ. eigenvalues --   -0.25855  -0.25374  -0.25113  -0.22094  -0.18238
 Alpha virt. eigenvalues --   -0.07090  -0.03604  -0.00019   0.01652   0.01745
 Alpha virt. eigenvalues --    0.02323   0.02617   0.03429   0.05699   0.05901
 Alpha virt. eigenvalues --    0.08361   0.08537   0.09004   0.09217   0.09912

 Mulliken atomic charges:
              1
     1  C   -0.156831
     2  C   -0.142332
     3  C   -0.097439
     4  C   -0.342363
     5  S    0.263621
     6  H    0.153202
     7  H    0.145456
     8  H    0.175160
     9  C   -0.132193
    10  C   -0.149698
    11  S    0.266719
    12  C   -0.147924
    13  H    0.155215
    14  C   -0.146049
    15  H    0.155457
    16  C   -0.146049
    17  C   -0.147924
    18  S    0.266719
    19  C   -0.149698
    20  H    0.155457
    21  C   -0.132193
    22  H    0.155215
    23  C   -0.156831
    24  C   -0.142332
    25  S    0.263621
    26  C   -0.097439
    27  H    0.153202
    28  C   -0.342363
    29  H    0.145456
    30  H    0.175160
 Sum of Mulliken atomic charges =   0.00000

 Dipole moment (field-independent basis, Debye):
    X=              0.0000    Y=              0.0000    Z=              0.0000  Tot=              0.0000
 Quadrupole moment (field-independent basis, Debye-Ang):
   XX=           -130.5276   YY=           -112.8280   ZZ=           -151.1240
   XY=             -4.7912   XZ=              0.0000   YZ=              0.0000

 Normal termination of Gaussian 09 at Fri Apr  8 11:27:16 2011.
