 Gaussian 09, Revision A.02,
 Gaussian 09:  EM64L-G09RevA.02 11-Jun-2009

 -------------------------------------------------------
 #p sp B3LYP/6-31g* td(singlets,nstates=3) geom=allcheck
 -------------------------------------------------------

 Title Card Required
 -------------------
 Redundant internal coordinates taken from checkpoint file:
 P3HT_6_cation_B3LYP_631GSTAR_TDDFT.chk
 Charge =  1 Multiplicity = 2

                         Standard orientation:
 ---------------------------------------------------------------------
 Center     Atomic      Atomic             Coordinates (Angstroms)
 Number     Number       Type             X           Y           Z
 ---------------------------------------------------------------------
      1          6           0        1.867297    8.291655    0.000000
      2          6           0        0.771637    9.144909    0.000000
      3          6           0        1.124447   10.513420    0.000000
      4          6           0        2.485356   10.708876    0.000000
      5         16           0        3.360680    9.221791    0.000000
      6          1           0       -0.254156    8.791436    0.000000
      7          1           0        0.405641   11.324418    0.000000
      8          1           0        3.023804   11.647450    0.000000
      9          6           0        1.887962    6.859598    0.000000
     10          6           0        2.996368    6.007903    0.000000
     11         16           0        0.402954    5.929738    0.000000
     12          6           0        2.664476    4.652148    0.000000
     13          1           0        4.016686    6.374466    0.000000
     14          6           0        1.287942    4.406170    0.000000
     15          1           0        3.403530    3.858016    0.000000
     16          6           0        0.612149    3.159645    0.000000
     17          6           0       -0.771637    2.920430    0.000000
     18         16           0        1.491450    1.637305    0.000000
     19          6           0       -1.109927    1.572420    0.000000
     20          1           0       -1.503042    3.720948    0.000000
     21          6           0       -0.004164    0.707056    0.000000
     22          1           0       -2.133392    1.213422    0.000000
     23          6           0        0.004164   -0.707056    0.000000
     24          6           0        1.109927   -1.572420    0.000000
     25         16           0       -1.491450   -1.637305    0.000000
     26          6           0        0.771637   -2.920430    0.000000
     27          1           0        2.133392   -1.213422    0.000000
     28          6           0       -0.612149   -3.159645    0.000000
     29          1           0        1.503042   -3.720948    0.000000
     30          6           0       -1.287942   -4.406170    0.000000
     31          6           0       -2.664476   -4.652148    0.000000
     32         16           0       -0.402954   -5.929738    0.000000
     33          6           0       -2.996368   -6.007903    0.000000
     34          1           0       -3.403530   -3.858016    0.000000
     35          6           0       -1.887962   -6.859598    0.000000
     36          1           0       -4.016686   -6.374466    0.000000
     37          6           0       -1.867297   -8.291655    0.000000
     38          6           0       -0.771637   -9.144909    0.000000
     39         16           0       -3.360680   -9.221791    0.000000
     40          6           0       -1.124447  -10.513420    0.000000
     41          1           0        0.254156   -8.791436    0.000000
     42          6           0       -2.485356  -10.708876    0.000000
     43          1           0       -0.405641  -11.324418    0.000000
     44          1           0       -3.023804  -11.647450    0.000000
 ---------------------------------------------------------------------

 SCF Done:  E(UB3LYP) =  -3311.86671897     A.U. after   22 cycles

 Excitation energies and oscillator strengths:

 Excited State   1:  2.015-BU     0.9433 eV 1314.31 nm  f=0.4321  <S**2>=0.765
    127A ->128A       -0.38961
    126B ->127B        0.92386
    127A <-128A       -0.10896
 This state for optimization and/or second-order correction.
 Total Energy, E(TD-HF/TD-KS) =  -3311.83205191
 Copying the excited state density for this state as the 1-particle RhoCI density.

 Excited State   2:  2.265-AG     1.5905 eV  779.55 nm  f=0.0000  <S**2>=1.033
    126A ->128A       -0.35590
    127A ->129A       -0.29867
    125B ->127B        0.86455
    126B ->128B        0.13388

 Excited State   3:  3.070-AG     1.9045 eV  651.00 nm  f=0.0000  <S**2>=2.106
    126A ->128A       -0.36033
    127A ->129A       -0.28274
    123B ->127B       -0.10039
    125B ->127B       -0.39291
    125B ->129B       -0.11347
    126B ->128B        0.75078

 The electronic state is 2-BG.
 Alpha  occ. eigenvalues --  -89.02235 -89.02235 -89.01603 -89.01603 -89.00380
 Alpha  occ. eigenvalues --  -89.00380 -10.35561 -10.35561 -10.35376 -10.35329
 Alpha  occ. eigenvalues --  -10.34868 -10.34868 -10.34393 -10.34393 -10.32735
 Alpha  occ. eigenvalues --  -10.32735 -10.31839 -10.31839 -10.31555 -10.31555
 Alpha  occ. eigenvalues --  -10.31452 -10.31452 -10.31265 -10.31265 -10.30490
 Alpha  occ. eigenvalues --  -10.30490 -10.29609 -10.29609 -10.28709 -10.28709
 Alpha  occ. eigenvalues --   -8.08342  -8.08340  -8.07710  -8.07710  -8.06490
 Alpha  occ. eigenvalues --   -8.06490  -6.04787  -6.04785  -6.04412  -6.04411
 Alpha  occ. eigenvalues --   -6.04149  -6.04149  -6.03946  -6.03946  -6.03773
 Alpha  occ. eigenvalues --   -6.03773  -6.03335  -6.03335  -6.02903  -6.02903
 Alpha  occ. eigenvalues --   -6.02522  -6.02522  -6.02184  -6.02184  -1.01840
 Alpha  occ. eigenvalues --   -1.00859  -0.99828  -0.98814  -0.97298  -0.96983
 Alpha  occ. eigenvalues --   -0.90886  -0.88699  -0.86854  -0.86173  -0.85540
 Alpha  occ. eigenvalues --   -0.84952  -0.84691  -0.83238  -0.83003  -0.82243
 Alpha  occ. eigenvalues --   -0.79943  -0.78573  -0.73733  -0.72268  -0.70651
 Alpha  occ. eigenvalues --   -0.69100  -0.67690  -0.65790  -0.65041  -0.64592
 Alpha  occ. eigenvalues --   -0.64032  -0.63706  -0.63364  -0.63312  -0.62257
 Alpha  occ. eigenvalues --   -0.61615  -0.59910  -0.57350  -0.55803  -0.55772
 Alpha  occ. eigenvalues --   -0.53146  -0.53002  -0.52851  -0.51859  -0.51824
 Alpha  occ. eigenvalues --   -0.51712  -0.51052  -0.50891  -0.50463  -0.50031
 Alpha  occ. eigenvalues --   -0.49487  -0.49324  -0.49318  -0.49059  -0.48849
 Alpha  occ. eigenvalues --   -0.47992  -0.47221  -0.46982  -0.46281  -0.46177
 Alpha  occ. eigenvalues --   -0.45404  -0.44743  -0.44569  -0.43415  -0.43410
 Alpha  occ. eigenvalues --   -0.42145  -0.39320  -0.37500  -0.37267  -0.36463
 Alpha  occ. eigenvalues --   -0.36376  -0.35932  -0.34707  -0.34703  -0.33078
 Alpha  occ. eigenvalues --   -0.30019  -0.27930
 Alpha virt. eigenvalues --   -0.19453  -0.16396  -0.13690  -0.11146  -0.09489
 Alpha virt. eigenvalues --   -0.09477  -0.08756  -0.08584  -0.08360  -0.06942
 Alpha virt. eigenvalues --   -0.06605  -0.06183  -0.05066  -0.04769  -0.02847

  Beta  occ. eigenvalues --  -89.02253 -89.02253 -89.01614 -89.01614 -89.00377
  Beta  occ. eigenvalues --  -89.00377 -10.35411 -10.35411 -10.35289 -10.35241
  Beta  occ. eigenvalues --  -10.34692 -10.34692 -10.34373 -10.34373 -10.32761
  Beta  occ. eigenvalues --  -10.32761 -10.31749 -10.31749 -10.31510 -10.31510
  Beta  occ. eigenvalues --  -10.31330 -10.31330 -10.31149 -10.31149 -10.30493
  Beta  occ. eigenvalues --  -10.30493 -10.29512 -10.29512 -10.28736 -10.28736
  Beta  occ. eigenvalues --   -8.08359  -8.08358  -8.07721  -8.07721  -8.06488
  Beta  occ. eigenvalues --   -8.06488  -6.04803  -6.04801  -6.04427  -6.04426
  Beta  occ. eigenvalues --   -6.04160  -6.04160  -6.03993  -6.03993  -6.03783
  Beta  occ. eigenvalues --   -6.03783  -6.03361  -6.03361  -6.02904  -6.02904
  Beta  occ. eigenvalues --   -6.02523  -6.02523  -6.02172  -6.02172  -1.01602
  Beta  occ. eigenvalues --   -1.00638  -0.99622  -0.98601  -0.97155  -0.96817
  Beta  occ. eigenvalues --   -0.90594  -0.88436  -0.86650  -0.86110  -0.85398
  Beta  occ. eigenvalues --   -0.84864  -0.84589  -0.83145  -0.82902  -0.82051
  Beta  occ. eigenvalues --   -0.79740  -0.78183  -0.73605  -0.72099  -0.70481
  Beta  occ. eigenvalues --   -0.68936  -0.67514  -0.65676  -0.64921  -0.64467
  Beta  occ. eigenvalues --   -0.63955  -0.63591  -0.63271  -0.63225  -0.62183
  Beta  occ. eigenvalues --   -0.61545  -0.59798  -0.57226  -0.55746  -0.55674
  Beta  occ. eigenvalues --   -0.53079  -0.52926  -0.52272  -0.51771  -0.51742
  Beta  occ. eigenvalues --   -0.51163  -0.50948  -0.50795  -0.49952  -0.49934
  Beta  occ. eigenvalues --   -0.49424  -0.49258  -0.49251  -0.48786  -0.48520
  Beta  occ. eigenvalues --   -0.47964  -0.46938  -0.46782  -0.46235  -0.45649
  Beta  occ. eigenvalues --   -0.45370  -0.44714  -0.44548  -0.43390  -0.43385
  Beta  occ. eigenvalues --   -0.41190  -0.38384  -0.37419  -0.36947  -0.36254
  Beta  occ. eigenvalues --   -0.36137  -0.35236  -0.34494  -0.34492  -0.32055
  Beta  occ. eigenvalues --   -0.28821
  Beta virt. eigenvalues --   -0.24416  -0.18616  -0.15654  -0.13001  -0.10481
  Beta virt. eigenvalues --   -0.09423  -0.09420  -0.08530  -0.08284  -0.08078
  Beta virt. eigenvalues --   -0.06910  -0.06572  -0.05586  -0.04960  -0.04121

 Mulliken atomic charges:
              1
     1  C   -0.167622
     2  C   -0.124381
     3  C   -0.094596
     4  C   -0.324341
     5  S    0.323079
     6  H    0.174960
     7  H    0.177349
     8  H    0.208986
     9  C   -0.115504
    10  C   -0.139556
    11  S    0.323991
    12  C   -0.126180
    13  H    0.187522
    14  C   -0.152382
    15  H    0.183976
    16  C   -0.132996
    17  C   -0.133302
    18  S    0.325075
    19  C   -0.128249
    20  H    0.188843
    21  C   -0.142485
    22  H    0.187812
    23  C   -0.142485
    24  C   -0.128249
    25  S    0.325075
    26  C   -0.133302
    27  H    0.187812
    28  C   -0.132996
    29  H    0.188843
    30  C   -0.152382
    31  C   -0.126180
    32  S    0.323991
    33  C   -0.139556
    34  H    0.183976
    35  C   -0.115504
    36  H    0.187522
    37  C   -0.167622
    38  C   -0.124381
    39  S    0.323079
    40  C   -0.094596
    41  H    0.174960
    42  C   -0.324341
    43  H    0.177349
    44  H    0.208986
 Sum of Mulliken atomic charges =   1.00000

 Dipole moment (field-independent basis, Debye):
    X=              0.0000    Y=              0.0000    Z=              0.0000  Tot=              0.0000
 Quadrupole moment (field-independent basis, Debye-Ang):
   XX=           -170.3609   YY=             70.9949   ZZ=           -221.1741
   XY=             51.3019   XZ=              0.0000   YZ=              0.0000

 Normal termination of Gaussian 09 at Fri Apr  8 11:49:05 2011.
