 Gaussian 09, Revision A.02,
 Gaussian 09:  EM64L-G09RevA.02 11-Jun-2009

 -------------------------------------------------------
 #p sp B3LYP/6-31g* td(singlets,nstates=3) geom=allcheck
 -------------------------------------------------------

 Title Card Required
 -------------------
 Redundant internal coordinates taken from checkpoint file:
 P3HT_8_B3LYP_631GSTAR_TDDFT.chk
 Charge =  0 Multiplicity = 1

                         Standard orientation:
 ---------------------------------------------------------------------
 Center     Atomic      Atomic             Coordinates (Angstroms)
 Number     Number       Type             X           Y           Z
 ---------------------------------------------------------------------
      1          6           0       -0.190471   12.470753    0.000000
      2          6           0       -1.452437   13.028965    0.000000
      3          6           0       -1.447136   14.451803    0.000000
      4          6           0       -0.185329   14.979415    0.000000
      5         16           0        1.027846   13.738638    0.000000
      6          1           0       -2.359902   12.434238    0.000000
      7          1           0       -2.347545   15.056337    0.000000
      8          1           0        0.109729   16.019975    0.000000
      9          6           0        0.189969   11.075767    0.000000
     10          6           0        1.451999   10.516580    0.000000
     11         16           0       -1.029822    9.810538    0.000000
     12          6           0        1.452439    9.102207    0.000000
     13          1           0        2.359399   11.111266    0.000000
     14          6           0        0.189436    8.542779    0.000000
     15          1           0        2.360150    8.507980    0.000000
     16          6           0       -0.190193    7.152199    0.000000
     17          6           0       -1.453735    6.592279    0.000000
     18         16           0        1.029822    5.885501    0.000000
     19          6           0       -1.454004    5.179113    0.000000
     20          1           0       -2.361069    7.187021    0.000000
     21          6           0       -0.190572    4.618675    0.000000
     22          1           0       -2.361595    4.584724    0.000000
     23          6           0        0.188235    3.228641    0.000000
     24          6           0        1.452092    2.668647    0.000000
     25         16           0       -1.031705    1.961525    0.000000
     26          6           0        1.452539    1.255808    0.000000
     27          1           0        2.359321    3.263546    0.000000
     28          6           0        0.189023    0.695038    0.000000
     29          1           0        2.360207    0.661553    0.000000
     30          6           0       -0.189023   -0.695038    0.000000
     31          6           0       -1.452539   -1.255808    0.000000
     32         16           0        1.031705   -1.961525    0.000000
     33          6           0       -1.452092   -2.668647    0.000000
     34          1           0       -2.360207   -0.661553    0.000000
     35          6           0       -0.188235   -3.228641    0.000000
     36          1           0       -2.359321   -3.263546    0.000000
     37          6           0        0.190572   -4.618675    0.000000
     38          6           0        1.454004   -5.179113    0.000000
     39         16           0       -1.029822   -5.885501    0.000000
     40          6           0        1.453735   -6.592279    0.000000
     41          1           0        2.361595   -4.584724    0.000000
     42          6           0        0.190193   -7.152199    0.000000
     43          1           0        2.361069   -7.187021    0.000000
     44          6           0       -0.189436   -8.542779    0.000000
     45          6           0       -1.452439   -9.102207    0.000000
     46         16           0        1.029822   -9.810538    0.000000
     47          6           0       -1.451999  -10.516580    0.000000
     48          1           0       -2.360150   -8.507980    0.000000
     49          6           0       -0.189969  -11.075767    0.000000
     50          1           0       -2.359399  -11.111266    0.000000
     51          6           0        0.190471  -12.470753    0.000000
     52          6           0        1.452437  -13.028965    0.000000
     53         16           0       -1.027846  -13.738638    0.000000
     54          6           0        1.447136  -14.451803    0.000000
     55          1           0        2.359902  -12.434238    0.000000
     56          6           0        0.185329  -14.979415    0.000000
     57          1           0        2.347545  -15.056337    0.000000
     58          1           0       -0.109729  -16.019975    0.000000
 ---------------------------------------------------------------------

 SCF Done:  E(RB3LYP) =  -4415.70783073     A.U. after   15 cycles

 Excitation energies and oscillator strengths:

 Excited State   1:      Singlet-BU     2.1484 eV  577.10 nm  f=2.7017  <S**2>=0.000
     169 ->170         0.70258
 This state for optimization and/or second-order correction.
 Total Energy, E(TD-HF/TD-KS) =  -4415.62887849
 Copying the excited state density for this state as the 1-particle RhoCI density.

 Excited State   2:      Singlet-AG     2.5473 eV  486.74 nm  f=0.0000  <S**2>=0.000
     168 ->170         0.49429
     169 ->171         0.49374

 Excited State   3:      Singlet-BU     3.0199 eV  410.56 nm  f=0.0290  <S**2>=0.000
     167 ->170        -0.34497
     168 ->171        -0.22623
     169 ->172         0.56327

 The electronic state is 1-AG.
 Alpha  occ. eigenvalues --  -88.91356 -88.91356 -88.91326 -88.91326 -88.91260
 Alpha  occ. eigenvalues --  -88.91260 -88.91214 -88.91214 -10.23748 -10.23740
 Alpha  occ. eigenvalues --  -10.23740 -10.23709 -10.23708 -10.23708 -10.23684
 Alpha  occ. eigenvalues --  -10.23684 -10.23613 -10.23613 -10.23597 -10.23597
 Alpha  occ. eigenvalues --  -10.23381 -10.23381 -10.22018 -10.22018 -10.20279
 Alpha  occ. eigenvalues --  -10.20279 -10.20249 -10.20249 -10.20230 -10.20230
 Alpha  occ. eigenvalues --  -10.20194 -10.20194 -10.20160 -10.20160 -10.20085
 Alpha  occ. eigenvalues --  -10.20085 -10.19928 -10.19928 -10.19869 -10.19869
 Alpha  occ. eigenvalues --   -7.97461  -7.97460  -7.97431  -7.97431  -7.97366
 Alpha  occ. eigenvalues --   -7.97366  -7.97330  -7.97330  -5.93897  -5.93895
 Alpha  occ. eigenvalues --   -5.93867  -5.93867  -5.93800  -5.93800  -5.93747
 Alpha  occ. eigenvalues --   -5.93747  -5.93527  -5.93527  -5.93497  -5.93497
 Alpha  occ. eigenvalues --   -5.93431  -5.93431  -5.93375  -5.93375  -5.93103
 Alpha  occ. eigenvalues --   -5.93103  -5.93073  -5.93073  -5.93012  -5.93012
 Alpha  occ. eigenvalues --   -5.93011  -5.93011  -0.90709  -0.90389  -0.89931
 Alpha  occ. eigenvalues --   -0.89334  -0.88623  -0.87850  -0.87124  -0.86663
 Alpha  occ. eigenvalues --   -0.79955  -0.78833  -0.77424  -0.76041  -0.75219
 Alpha  occ. eigenvalues --   -0.75070  -0.74760  -0.74487  -0.73947  -0.73901
 Alpha  occ. eigenvalues --   -0.73415  -0.73288  -0.72279  -0.70706  -0.69209
 Alpha  occ. eigenvalues --   -0.68261  -0.62849  -0.62206  -0.61309  -0.60271
 Alpha  occ. eigenvalues --   -0.59152  -0.58018  -0.56902  -0.55895  -0.55469
 Alpha  occ. eigenvalues --   -0.54124  -0.53728  -0.53456  -0.53219  -0.53133
 Alpha  occ. eigenvalues --   -0.53045  -0.52988  -0.52866  -0.52473  -0.51236
 Alpha  occ. eigenvalues --   -0.49228  -0.47248  -0.45867  -0.45241  -0.45005
 Alpha  occ. eigenvalues --   -0.42436  -0.42353  -0.41897  -0.41837  -0.41750
 Alpha  occ. eigenvalues --   -0.41519  -0.41380  -0.41360  -0.41173  -0.41138
 Alpha  occ. eigenvalues --   -0.40782  -0.40059  -0.40048  -0.40009  -0.39051
 Alpha  occ. eigenvalues --   -0.38988  -0.38941  -0.38807  -0.38689  -0.38500
 Alpha  occ. eigenvalues --   -0.37938  -0.37895  -0.36944  -0.36755  -0.36248
 Alpha  occ. eigenvalues --   -0.35817  -0.35509  -0.34932  -0.34470  -0.34116
 Alpha  occ. eigenvalues --   -0.33850  -0.33650  -0.33568  -0.31524  -0.29876
 Alpha  occ. eigenvalues --   -0.27906  -0.26650  -0.26444  -0.26363  -0.26038
 Alpha  occ. eigenvalues --   -0.25807  -0.25552  -0.25540  -0.25325  -0.25285
 Alpha  occ. eigenvalues --   -0.23370  -0.21108  -0.18989  -0.17356
 Alpha virt. eigenvalues --   -0.08472  -0.06865  -0.04991  -0.03064  -0.01158
 Alpha virt. eigenvalues --    0.00702   0.01127   0.01127   0.01516   0.01535
 Alpha virt. eigenvalues --    0.01874   0.01919   0.02264   0.02417   0.02502

 Mulliken atomic charges:
              1
     1  C   -0.157242
     2  C   -0.141949
     3  C   -0.097469
     4  C   -0.342010
     5  S    0.264668
     6  H    0.153514
     7  H    0.146001
     8  H    0.175777
     9  C   -0.131755
    10  C   -0.149537
    11  S    0.267859
    12  C   -0.147322
    13  H    0.155955
    14  C   -0.147218
    15  H    0.156125
    16  C   -0.143492
    17  C   -0.148331
    18  S    0.268808
    19  C   -0.147790
    20  H    0.156598
    21  C   -0.145209
    22  H    0.156559
    23  C   -0.144486
    24  C   -0.148002
    25  S    0.268950
    26  C   -0.147832
    27  H    0.156856
    28  C   -0.144825
    29  H    0.156797
    30  C   -0.144825
    31  C   -0.147832
    32  S    0.268950
    33  C   -0.148002
    34  H    0.156797
    35  C   -0.144486
    36  H    0.156856
    37  C   -0.145209
    38  C   -0.147790
    39  S    0.268808
    40  C   -0.148331
    41  H    0.156559
    42  C   -0.143492
    43  H    0.156598
    44  C   -0.147218
    45  C   -0.147322
    46  S    0.267859
    47  C   -0.149537
    48  H    0.156125
    49  C   -0.131755
    50  H    0.155955
    51  C   -0.157242
    52  C   -0.141949
    53  S    0.264668
    54  C   -0.097469
    55  H    0.153514
    56  C   -0.342010
    57  H    0.146001
    58  H    0.175777
 Sum of Mulliken atomic charges =   0.00000

 Dipole moment (field-independent basis, Debye):
    X=              0.0000    Y=              0.0000    Z=              0.0000  Tot=              0.0000
 Quadrupole moment (field-independent basis, Debye-Ang):
   XX=           -258.1294   YY=           -213.6551   ZZ=           -300.0181
   XY=            -10.4538   XZ=              0.0000   YZ=              0.0000

 Normal termination of Gaussian 09 at Fri Apr  8 11:50:31 2011.
