 Gaussian 09, Revision A.02,
 Gaussian 09:  EM64L-G09RevA.02 11-Jun-2009

 -------------------------------------------------------
 #p sp B3LYP/6-31g* td(singlets,nstates=3) geom=allcheck
 -------------------------------------------------------

 Title Card Required
 -------------------
 Redundant internal coordinates taken from checkpoint file:
 P3HT_4_cation_B3LYP_631GSTAR_TDDFT.chk
 Charge =  1 Multiplicity = 2

                         Standard orientation:
 ---------------------------------------------------------------------
 Center     Atomic      Atomic             Coordinates (Angstroms)
 Number     Number       Type             X           Y           Z
 ---------------------------------------------------------------------
      1          6           0       -0.051188    4.589056    0.000000
      2          6           0       -1.306701    5.198693    0.000000
      3          6           0       -1.245133    6.604528    0.000000
      4          6           0        0.051188    7.077559    0.000000
      5         16           0        1.217895    5.811913    0.000000
      6          1           0       -2.236181    4.639162    0.000000
      7          1           0       -2.114297    7.251496    0.000000
      8          1           0        0.379956    8.108878    0.000000
      9          6           0        0.261247    3.201371    0.000000
     10          6           0        1.533172    2.599100    0.000000
     11         16           0       -0.995892    1.978386    0.000000
     12          6           0        1.496119    1.212883    0.000000
     13          1           0        2.451814    3.174860    0.000000
     14          6           0        0.193195    0.677748    0.000000
     15          1           0        2.384734    0.591001    0.000000
     16          6           0       -0.193195   -0.677748    0.000000
     17          6           0       -1.496119   -1.212884    0.000000
     18         16           0        0.995892   -1.978386    0.000000
     19          6           0       -1.533172   -2.599100    0.000000
     20          1           0       -2.384734   -0.591001    0.000000
     21          6           0       -0.261247   -3.201371    0.000000
     22          1           0       -2.451814   -3.174860    0.000000
     23          6           0        0.051188   -4.589056    0.000000
     24          6           0        1.306701   -5.198693    0.000000
     25         16           0       -1.217895   -5.811913    0.000000
     26          6           0        1.245133   -6.604528    0.000000
     27          1           0        2.236181   -4.639162    0.000000
     28          6           0       -0.051188   -7.077559    0.000000
     29          1           0        2.114297   -7.251496    0.000000
     30          1           0       -0.379956   -8.108878    0.000000
 ---------------------------------------------------------------------

 SCF Done:  E(UB3LYP) =  -2208.22174323     A.U. after   21 cycles

 Excitation energies and oscillator strengths:

 Excited State   1:  2.012-A'     1.3135 eV  943.91 nm  f=0.1507  <S**2>=0.762
     85A -> 86A        0.49358
     84B -> 85B        0.86458
 This state for optimization and/or second-order correction.
 Total Energy, E(TD-HF/TD-KS) =  -2208.17347248
 Copying the excited state density for this state as the 1-particle RhoCI density.

 Excited State   2:  2.101-A'     2.1565 eV  574.94 nm  f=0.2673  <S**2>=0.853
     85A -> 86A       -0.25801
     80B -> 85B        0.13937
     82B -> 86B        0.13023
     83B -> 85B        0.89997
     84B -> 85B        0.24255

 Excited State   3:  2.256-A'     2.1567 eV  574.87 nm  f=0.0000  <S**2>=1.022
     83A -> 86A       -0.11698
     84A -> 86A       -0.20333
     85A -> 87A        0.17898
     81B -> 85B       -0.34856
     82B -> 85B        0.84394
     83B -> 86B        0.13196
     84B -> 86B       -0.20013

 The electronic state is 2-A".
 Alpha  occ. eigenvalues --  -89.04528 -89.04528 -89.03356 -89.03356 -10.38214
 Alpha  occ. eigenvalues --  -10.38214 -10.37873 -10.37824 -10.35898 -10.35898
 Alpha  occ. eigenvalues --  -10.34701 -10.34701 -10.34283 -10.34283 -10.33751
 Alpha  occ. eigenvalues --  -10.33751 -10.32799 -10.32799 -10.31620 -10.31620
 Alpha  occ. eigenvalues --   -8.10636  -8.10634  -8.09462  -8.09462  -6.07079
 Alpha  occ. eigenvalues --   -6.07077  -6.06700  -6.06700  -6.06241  -6.06241
 Alpha  occ. eigenvalues --   -6.05874  -6.05874  -6.05489  -6.05489  -6.05157
 Alpha  occ. eigenvalues --   -6.05157  -1.04108  -1.02609  -1.00727  -0.99842
 Alpha  occ. eigenvalues --   -0.92702  -0.89737  -0.88170  -0.87894  -0.86161
 Alpha  occ. eigenvalues --   -0.86124  -0.84244  -0.81337  -0.75495  -0.73525
 Alpha  occ. eigenvalues --   -0.71208  -0.68892  -0.67440  -0.66415  -0.66284
 Alpha  occ. eigenvalues --   -0.65781  -0.64765  -0.63466  -0.59804  -0.58167
 Alpha  occ. eigenvalues --   -0.55309  -0.55071  -0.54826  -0.53847  -0.53661
 Alpha  occ. eigenvalues --   -0.53253  -0.52291  -0.52272  -0.51945  -0.50981
 Alpha  occ. eigenvalues --   -0.50927  -0.49719  -0.49051  -0.48624  -0.47433
 Alpha  occ. eigenvalues --   -0.46376  -0.46343  -0.43895  -0.40214  -0.39227
 Alpha  occ. eigenvalues --   -0.39061  -0.37710  -0.37677  -0.34833  -0.31196
 Alpha virt. eigenvalues --   -0.21221  -0.16846  -0.13103  -0.11554  -0.11503
 Alpha virt. eigenvalues --   -0.09855  -0.09541  -0.09286  -0.07172  -0.06639
 Alpha virt. eigenvalues --   -0.04681  -0.03928  -0.03380  -0.03324  -0.02550

  Beta  occ. eigenvalues --  -89.04550 -89.04550 -89.03354 -89.03354 -10.37970
  Beta  occ. eigenvalues --  -10.37970 -10.37759 -10.37709 -10.35913 -10.35913
  Beta  occ. eigenvalues --  -10.34488 -10.34488 -10.34155 -10.34155 -10.33718
  Beta  occ. eigenvalues --  -10.33718 -10.32647 -10.32647 -10.31658 -10.31658
  Beta  occ. eigenvalues --   -8.10657  -8.10656  -8.09461  -8.09461  -6.07100
  Beta  occ. eigenvalues --   -6.07098  -6.06720  -6.06720  -6.06295  -6.06295
  Beta  occ. eigenvalues --   -6.05877  -6.05877  -6.05493  -6.05493  -6.05145
  Beta  occ. eigenvalues --   -6.05145  -1.03775  -1.02295  -1.00487  -0.99565
  Beta  occ. eigenvalues --   -0.92286  -0.89438  -0.88028  -0.87752  -0.86009
  Beta  occ. eigenvalues --   -0.85976  -0.83960  -0.80786  -0.75273  -0.73270
  Beta  occ. eigenvalues --   -0.70951  -0.68710  -0.67244  -0.66254  -0.66178
  Beta  occ. eigenvalues --   -0.65630  -0.64655  -0.63320  -0.59628  -0.58074
  Beta  occ. eigenvalues --   -0.55214  -0.54718  -0.54250  -0.53711  -0.53492
  Beta  occ. eigenvalues --   -0.52450  -0.52181  -0.52159  -0.51849  -0.50924
  Beta  occ. eigenvalues --   -0.50238  -0.49638  -0.48555  -0.48224  -0.47387
  Beta  occ. eigenvalues --   -0.46330  -0.46304  -0.42473  -0.39693  -0.38993
  Beta  occ. eigenvalues --   -0.38034  -0.37382  -0.37353  -0.33405
  Beta virt. eigenvalues --   -0.26725  -0.19927  -0.15831  -0.12161  -0.11472
  Beta virt. eigenvalues --   -0.11379  -0.09797  -0.09207  -0.08650  -0.06466
  Beta virt. eigenvalues --   -0.06256  -0.03823  -0.03776  -0.02478  -0.02470

 Mulliken atomic charges:
              1
     1  C   -0.169280
     2  C   -0.115772
     3  C   -0.092363
     4  C   -0.314688
     5  S    0.351001
     6  H    0.187053
     7  H    0.191355
     8  H    0.223165
     9  C   -0.111456
    10  C   -0.131186
    11  S    0.347886
    12  C   -0.121278
    13  H    0.200114
    14  C   -0.142227
    15  H    0.197677
    16  C   -0.142227
    17  C   -0.121278
    18  S    0.347886
    19  C   -0.131186
    20  H    0.197677
    21  C   -0.111456
    22  H    0.200114
    23  C   -0.169280
    24  C   -0.115772
    25  S    0.351001
    26  C   -0.092363
    27  H    0.187053
    28  C   -0.314688
    29  H    0.191355
    30  H    0.223165
 Sum of Mulliken atomic charges =   1.00000

 Dipole moment (field-independent basis, Debye):
    X=              0.0000    Y=              0.0000    Z=              0.0000  Tot=              0.0000
 Quadrupole moment (field-independent basis, Debye-Ang):
   XX=           -117.3810   YY=              6.7398   ZZ=           -146.7530
   XY=             -5.1374   XZ=              0.0000   YZ=              0.0000

 Normal termination of Gaussian 09 at Fri Apr  8 11:33:25 2011.
