 Gaussian 09, Revision A.02,
 Gaussian 09:  EM64L-G09RevA.02 11-Jun-2009

 ----------------------------------------------------------------------
 #p sp B3LYP/6-31g* geom=allcheck td(singlets,nstates=3) density=curren
 t
 ----------------------------------------------------------------------

 Title Card Required
 -------------------
 Redundant internal coordinates taken from checkpoint file:
 P3HT_12_631GSTAR_SP_TDDFT.chk
 Charge =  0 Multiplicity = 1

                         Standard orientation:
 ---------------------------------------------------------------------
 Center     Atomic      Atomic             Coordinates (Angstroms)
 Number     Number       Type             X           Y           Z
 ---------------------------------------------------------------------
      1          6           0       -3.228129    0.193564   -0.000059
      2          6           0       -2.665963    1.456647   -0.000086
      3          6           0       -1.253356    1.454712   -0.000097
      4          6           0       -0.694652    0.190109   -0.000079
      5         16           0       -1.963073   -1.028518   -0.000046
      6          1           0       -3.259389    2.364846   -0.000104
      7          1           0       -0.657473    2.361309   -0.000122
      8          6           0       -4.618512   -0.182763   -0.000039
      9          6           0       -5.180931   -1.445684   -0.000105
     10         16           0       -5.883362    1.039580    0.000087
     11          6           0       -6.593587   -1.443474   -0.000054
     12          1           0       -4.587713   -2.354032   -0.000191
     13          6           0       -7.152009   -0.178747    0.000050
     14          1           0       -7.189686   -2.349921   -0.000092
     15          6           0       -8.541219    0.202042    0.000125
     16          6           0       -9.099266    1.466813    0.000258
     17         16           0       -9.810348   -1.015947    0.000046
     18          6           0      -10.511970    1.469471    0.000323
     19          1           0       -8.502970    2.373153    0.000327
     20          6           0      -11.074727    0.206752    0.000236
     21          1           0      -11.104960    2.377944    0.000461
     22          6           0      -12.465576   -0.168776    0.000278
     23          6           0      -13.029127   -1.430845    0.000580
     24         16           0      -13.729374    1.054741   -0.000092
     25          6           0      -14.442219   -1.427095    0.000558
     26          1           0      -12.436936   -2.339883    0.000857
     27          6           0      -14.999030   -0.162124    0.000240
     28          1           0      -15.039302   -2.332889    0.000818
     29          6           0      -16.388593    0.221036    0.000153
     30          6           0      -16.944734    1.485516    0.000259
     31         16           0      -17.659502   -0.994910   -0.000133
     32          6           0      -18.359026    1.488779    0.000140
     33          1           0      -16.348058    2.391625    0.000457
     34          6           0      -18.921500    0.228173   -0.000057
     35          1           0      -18.951422    2.397679    0.000226
     36          6           0      -20.317460   -0.148543   -0.000199
     37          6           0      -20.878992   -1.409054   -0.000188
     38         16           0      -21.582065    1.073130   -0.000430
     39          6           0      -22.301776   -1.399975   -0.000355
     40          1           0      -20.286623   -2.318064   -0.000048
     41          6           0      -22.825988   -0.136746   -0.000491
     42          1           0      -22.908808   -2.298702   -0.000365
     43          1           0      -23.865733    0.161183   -0.000626
     44          6           0        0.694652   -0.190109   -0.000082
     45          6           0        1.253356   -1.454712   -0.000107
     46         16           0        1.963073    1.028518   -0.000049
     47          6           0        2.665963   -1.456647   -0.000101
     48          1           0        0.657473   -2.361309   -0.000133
     49          6           0        3.228129   -0.193564   -0.000071
     50          1           0        3.259389   -2.364846   -0.000126
     51          6           0        4.618512    0.182763   -0.000056
     52          6           0        5.180931    1.445684   -0.000132
     53         16           0        5.883362   -1.039580    0.000078
     54          6           0        6.593587    1.443474   -0.000085
     55          1           0        4.587713    2.354032   -0.000226
     56          6           0        7.152009    0.178747    0.000028
     57          1           0        7.189686    2.349921   -0.000133
     58          6           0        8.541219   -0.202042    0.000101
     59          6           0        9.099266   -1.466813    0.000228
     60         16           0        9.810348    1.015947    0.000031
     61          6           0       10.511970   -1.469471    0.000291
     62          1           0        8.502970   -2.373153    0.000290
     63          6           0       11.074727   -0.206752    0.000210
     64          1           0       11.104960   -2.377944    0.000421
     65          6           0       12.465576    0.168776    0.000251
     66          6           0       13.029127    1.430845    0.000525
     67         16           0       13.729374   -1.054741   -0.000083
     68          6           0       14.442219    1.427095    0.000509
     69          1           0       12.436936    2.339883    0.000776
     70          6           0       14.999030    0.162124    0.000221
     71          1           0       15.039302    2.332889    0.000746
     72          6           0       16.388593   -0.221036    0.000145
     73          6           0       16.944734   -1.485516    0.000251
     74         16           0       17.659502    0.994910   -0.000126
     75          6           0       18.359026   -1.488779    0.000144
     76          1           0       16.348058   -2.391625    0.000440
     77          6           0       18.921500   -0.228173   -0.000045
     78          1           0       18.951422   -2.397679    0.000232
     79          6           0       20.317460    0.148543   -0.000176
     80          6           0       20.878992    1.409054   -0.000142
     81         16           0       21.582065   -1.073130   -0.000423
     82          6           0       22.301776    1.399975   -0.000303
     83          1           0       20.286623    2.318064    0.000013
     84          6           0       22.825988    0.136746   -0.000459
     85          1           0       22.908808    2.298702   -0.000296
     86          1           0       23.865733   -0.161183   -0.000595
 ---------------------------------------------------------------------

 SCF Done:  E(RB3LYP) =  -6622.96883316     A.U. after   15 cycles

 Excitation energies and oscillator strengths:

 Excited State   1:      Singlet-A      1.9292 eV  642.67 nm  f=4.0723  <S**2>=0.000
     252 -> 255       -0.15020
     253 -> 254        0.68843
 This state for optimization and/or second-order correction.
 Total Energy, E(TD-HF/TD-KS) =  -6622.89793634
 Copying the excited state density for this state as the 1-particle RhoCI density.

 Excited State   2:      Singlet-A      2.2649 eV  547.43 nm  f=0.0000  <S**2>=0.000
     252 -> 254        0.53403
     253 -> 255        0.44242

 Excited State   3:      Singlet-A      2.3488 eV  527.86 nm  f=0.0000  <S**2>=0.000
     252 -> 254       -0.45144
     253 -> 255        0.54157

 The electronic state is 1-A.
 Alpha  occ. eigenvalues --  -88.91456 -88.91456 -88.91444 -88.91444 -88.91421
 Alpha  occ. eigenvalues --  -88.91421 -88.91372 -88.91372 -88.91296 -88.91296
 Alpha  occ. eigenvalues --  -88.91242 -88.91242 -10.23853 -10.23848 -10.23848
 Alpha  occ. eigenvalues --  -10.23833 -10.23833 -10.23814 -10.23807 -10.23807
 Alpha  occ. eigenvalues --  -10.23805 -10.23805 -10.23782 -10.23782 -10.23756
 Alpha  occ. eigenvalues --  -10.23756 -10.23733 -10.23733 -10.23650 -10.23650
 Alpha  occ. eigenvalues --  -10.23633 -10.23633 -10.23409 -10.23409 -10.22045
 Alpha  occ. eigenvalues --  -10.22045 -10.20383 -10.20383 -10.20372 -10.20372
 Alpha  occ. eigenvalues --  -10.20345 -10.20345 -10.20334 -10.20334 -10.20322
 Alpha  occ. eigenvalues --  -10.20322 -10.20299 -10.20299 -10.20292 -10.20292
 Alpha  occ. eigenvalues --  -10.20239 -10.20239 -10.20198 -10.20198 -10.20119
 Alpha  occ. eigenvalues --  -10.20119 -10.19955 -10.19955 -10.19898 -10.19898
 Alpha  occ. eigenvalues --   -7.97562  -7.97560  -7.97549  -7.97549  -7.97525
 Alpha  occ. eigenvalues --   -7.97525  -7.97477  -7.97477  -7.97402  -7.97402
 Alpha  occ. eigenvalues --   -7.97359  -7.97359  -5.93998  -5.93996  -5.93984
 Alpha  occ. eigenvalues --   -5.93984  -5.93961  -5.93961  -5.93913  -5.93913
 Alpha  occ. eigenvalues --   -5.93837  -5.93837  -5.93775  -5.93775  -5.93628
 Alpha  occ. eigenvalues --   -5.93627  -5.93615  -5.93615  -5.93591  -5.93591
 Alpha  occ. eigenvalues --   -5.93543  -5.93543  -5.93467  -5.93467  -5.93404
 Alpha  occ. eigenvalues --   -5.93404  -5.93203  -5.93203  -5.93190  -5.93190
 Alpha  occ. eigenvalues --   -5.93167  -5.93167  -5.93120  -5.93120  -5.93047
 Alpha  occ. eigenvalues --   -5.93047  -5.93041  -5.93041  -0.90866  -0.90695
 Alpha  occ. eigenvalues --   -0.90466  -0.90171  -0.89809  -0.89382  -0.88901
 Alpha  occ. eigenvalues --   -0.88380  -0.87843  -0.87331  -0.86903  -0.86680
 Alpha  occ. eigenvalues --   -0.80281  -0.79677  -0.78860  -0.77915  -0.76938
 Alpha  occ. eigenvalues --   -0.76040  -0.75388  -0.75328  -0.75184  -0.74957
 Alpha  occ. eigenvalues --   -0.74723  -0.74581  -0.74227  -0.74126  -0.73728
 Alpha  occ. eigenvalues --   -0.73722  -0.73465  -0.73303  -0.72625  -0.71603
 Alpha  occ. eigenvalues --   -0.70498  -0.69468  -0.68655  -0.68208  -0.63104
 Alpha  occ. eigenvalues --   -0.62799  -0.62335  -0.61743  -0.61058  -0.60311
 Alpha  occ. eigenvalues --   -0.59527  -0.58726  -0.57926  -0.57148  -0.56424
 Alpha  occ. eigenvalues --   -0.55754  -0.55570  -0.54519  -0.54022  -0.53908
 Alpha  occ. eigenvalues --   -0.53613  -0.53522  -0.53305  -0.53301  -0.53164
 Alpha  occ. eigenvalues --   -0.53137  -0.53092  -0.53032  -0.53020  -0.52806
 Alpha  occ. eigenvalues --   -0.52369  -0.51402  -0.50050  -0.48615  -0.47292
 Alpha  occ. eigenvalues --   -0.46275  -0.45663  -0.45337  -0.45137  -0.45056
 Alpha  occ. eigenvalues --   -0.42624  -0.42603  -0.42263  -0.42257  -0.41929
 Alpha  occ. eigenvalues --   -0.41918  -0.41781  -0.41715  -0.41665  -0.41527
 Alpha  occ. eigenvalues --   -0.41434  -0.41376  -0.41238  -0.41226  -0.41182
 Alpha  occ. eigenvalues --   -0.41064  -0.40602  -0.40090  -0.40084  -0.40048
 Alpha  occ. eigenvalues --   -0.39407  -0.39203  -0.39200  -0.38946  -0.38929
 Alpha  occ. eigenvalues --   -0.38898  -0.38846  -0.38764  -0.38685  -0.38594
 Alpha  occ. eigenvalues --   -0.38213  -0.37898  -0.37587  -0.37076  -0.36894
 Alpha  occ. eigenvalues --   -0.36449  -0.36293  -0.35911  -0.35763  -0.35465
 Alpha  occ. eigenvalues --   -0.35078  -0.34743  -0.34459  -0.34226  -0.34036
 Alpha  occ. eigenvalues --   -0.33881  -0.33759  -0.33647  -0.33629  -0.31963
 Alpha  occ. eigenvalues --   -0.30994  -0.29787  -0.28446  -0.27075  -0.26784
 Alpha  occ. eigenvalues --   -0.26674  -0.26534  -0.26350  -0.26315  -0.26120
 Alpha  occ. eigenvalues --   -0.25945  -0.25763  -0.25616  -0.25492  -0.25375
 Alpha  occ. eigenvalues --   -0.25340  -0.25309  -0.23846  -0.22295  -0.20760
 Alpha  occ. eigenvalues --   -0.19300  -0.18021  -0.17132
 Alpha virt. eigenvalues --   -0.08902  -0.07966  -0.06787  -0.05506  -0.04194
 Alpha virt. eigenvalues --   -0.02882  -0.01584  -0.00307   0.00944   0.00950
 Alpha virt. eigenvalues --    0.00952   0.01174   0.01181   0.01448   0.01459

 Mulliken atomic charges:
              1
     1  C   -0.144170
     2  C   -0.146708
     3  C   -0.147242
     4  C   -0.143808
     5  S    0.257924
     6  H    0.158589
     7  H    0.158621
     8  C   -0.143479
     9  C   -0.147708
    10  S    0.259528
    11  C   -0.146254
    12  H    0.158673
    13  C   -0.144424
    14  H    0.158552
    15  C   -0.143414
    16  C   -0.147901
    17  S    0.262123
    18  C   -0.146253
    19  H    0.158669
    20  C   -0.144078
    21  H    0.158571
    22  C   -0.144075
    23  C   -0.147871
    24  S    0.265116
    25  C   -0.146783
    26  H    0.158250
    27  C   -0.142951
    28  H    0.158138
    29  C   -0.146613
    30  C   -0.147287
    31  S    0.266935
    32  C   -0.148511
    33  H    0.157488
    34  C   -0.130986
    35  H    0.157215
    36  C   -0.157283
    37  C   -0.141798
    38  S    0.265690
    39  C   -0.097070
    40  H    0.154354
    41  C   -0.341370
    42  H    0.146925
    43  H    0.176675
    44  C   -0.143808
    45  C   -0.147242
    46  S    0.257924
    47  C   -0.146708
    48  H    0.158621
    49  C   -0.144170
    50  H    0.158589
    51  C   -0.143479
    52  C   -0.147708
    53  S    0.259528
    54  C   -0.146254
    55  H    0.158673
    56  C   -0.144424
    57  H    0.158552
    58  C   -0.143414
    59  C   -0.147901
    60  S    0.262123
    61  C   -0.146253
    62  H    0.158669
    63  C   -0.144078
    64  H    0.158571
    65  C   -0.144075
    66  C   -0.147871
    67  S    0.265116
    68  C   -0.146783
    69  H    0.158250
    70  C   -0.142951
    71  H    0.158138
    72  C   -0.146613
    73  C   -0.147287
    74  S    0.266935
    75  C   -0.148511
    76  H    0.157488
    77  C   -0.130986
    78  H    0.157215
    79  C   -0.157283
    80  C   -0.141798
    81  S    0.265690
    82  C   -0.097070
    83  H    0.154354
    84  C   -0.341370
    85  H    0.146925
    86  H    0.176675
 Sum of Mulliken atomic charges =   0.00000

 Dipole moment (field-independent basis, Debye):
    X=              0.0000    Y=              0.0000    Z=              0.0009  Tot=              0.0009
 Quadrupole moment (field-independent basis, Debye-Ang):
   XX=           -274.2407   YY=           -386.6936   ZZ=           -449.2157
   XY=             15.4200   XZ=             -0.0002   YZ=              0.0000

 Normal termination of Gaussian 09 at Tue Jun 14 20:07:54 2011.
