 Gaussian 09, Revision A.02,
 Gaussian 09:  EM64L-G09RevA.02 11-Jun-2009

 -------------------------------------
 #p opt B3LYP/6-31g* geom=connectivity
 -------------------------------------

 ---
 tit
 ---
 Symbolic Z-matrix:
 Charge = -1 Multiplicity = 2

 SCF Done:  E(UB3LYP) =  -2902.40436200     A.U. after   28 cycles
 SCF Done:  E(UB3LYP) =  -2902.40689861     A.U. after   21 cycles
 SCF Done:  E(UB3LYP) =  -2902.40701494     A.U. after   19 cycles
 SCF Done:  E(UB3LYP) =  -2902.40671294     A.U. after   19 cycles
 SCF Done:  E(UB3LYP) =  -2902.40716732     A.U. after   16 cycles
 SCF Done:  E(UB3LYP) =  -2902.40717772     A.U. after   17 cycles
 SCF Done:  E(UB3LYP) =  -2902.40719671     A.U. after   17 cycles
 SCF Done:  E(UB3LYP) =  -2902.40720348     A.U. after   18 cycles
 SCF Done:  E(UB3LYP) =  -2902.40720718     A.U. after   17 cycles
 SCF Done:  E(UB3LYP) =  -2902.40720780     A.U. after   12 cycles
 SCF Done:  E(UB3LYP) =  -2902.40720812     A.U. after   13 cycles
 SCF Done:  E(UB3LYP) =  -2902.40720815     A.U. after    8 cycles
 SCF Done:  E(UB3LYP) =  -2902.40720818     A.U. after    6 cycles
 Optimization completed.
    -- Stationary point found.

                         Standard orientation:
 ---------------------------------------------------------------------
 Center     Atomic      Atomic             Coordinates (Angstroms)
 Number     Number       Type             X           Y           Z
 ---------------------------------------------------------------------
      1          6           0       -1.254771    1.443109   -1.455621
      2          6           0       -0.592183    0.834085   -2.581933
      3          6           0       -0.800921   -0.594485   -2.524264
      4          6           0       -1.597321   -0.896823   -1.362092
      5          6           0       -2.056799    0.393192   -0.754910
      6          6           0       -0.652134    2.500251   -0.790552
      7          6           0        0.622919    1.351668   -3.064632
      8          6           0        0.216156   -1.471079   -2.949504
      9          6           0       -1.303326   -2.023820   -0.602787
     10          6           0       -2.031200    0.453331    0.851531
     11          6           0       -0.631072    2.557954    0.679836
     12          6           0        0.618384    3.025501   -1.264220
     13          6           0        1.680936    0.443560   -3.487062
     14          6           0        1.236657    2.462671   -2.391212
     15          6           0        0.502129   -2.649717   -2.177954
     16          6           0        1.480719   -0.935194   -3.429110
     17          6           0       -1.279559   -1.966402    0.866705
     18          6           0       -0.235561   -2.922126   -1.016985
     19          6           0       -1.213088    1.557146    1.443700
     20          6           0       -1.548910   -0.782453    1.542492
     21          6           0        0.653625    3.116820    1.071152
     22          6           0        1.411571    3.419546   -0.121992
     23          6           0        2.955882    1.015531   -3.092370
     24          6           0        2.681110    2.258782   -2.403950
     25          6           0        1.944867   -2.866380   -2.191587
     26          6           0        2.549412   -1.809686   -2.972856
     27          6           0       -0.199380   -2.831252    1.317011
     28          6           0        0.427365   -3.432696    0.161916
     29          6           0       -0.513693    1.037761    2.593383
     30          6           0       -0.720422   -0.391114    2.653703
     31          6           0        1.306973    2.643771    2.218842
     32          6           0        2.811100    3.232183   -0.136371
     33          6           0        3.989430    0.172083   -2.644041
     34          6           0        3.444523    2.635150   -1.292942
     35          6           0        2.584784   -3.352583   -1.044914
     36          6           0        3.782620   -1.257989   -2.584171
     37          6           0        0.572967   -2.470031    2.430472
     38          6           0        1.823420   -3.650193    0.149030
     39          6           0        0.715157    1.590008    2.996159
     40          6           0        0.309590   -1.233483    3.114930
     41          6           0        2.751246    2.439013    2.202884
     42          6           0        3.480218    2.726747    1.043593
     43          6           0        4.779421    0.561646   -1.491137
     44          6           0        4.518631    1.766486   -0.830956
     45          6           0        3.864674   -2.786251   -0.642881
     46          6           0        4.445605   -1.760925   -1.393549
     47          6           0        2.015722   -2.685849    2.416664
     48          6           0        2.620867   -3.261176    1.292302
     49          6           0        1.786894    0.715973    3.455111
     50          6           0        1.587292   -0.662907    3.512730
     51          6           0        3.048486    1.253304    2.977872
     52          6           0        4.540953    1.823544    0.618285
     53          6           0        5.069509   -0.635154   -0.717402
     54          6           0        3.886885   -2.729319    0.807863
     55          6           0        2.642592   -1.571291    3.093357
     56          6           0        4.069245    0.376641    2.565827
     57          6           0        4.823633    0.673837    1.362724
     58          6           0        5.091429   -0.580433    0.676853
     59          6           0        4.489423   -1.649061    1.457882
     60          6           0        3.862429   -1.053507    2.624638
     61          6           0       -3.318660    0.608138    0.058773
     62          6           0       -3.975750    1.969119    0.044758
     63          6           0       -4.242800    2.645069   -1.152421
     64          6           0       -4.402756    2.546516    1.248653
     65          6           0       -4.920607    3.865779   -1.147091
     66          6           0       -5.079848    3.765329    1.257344
     67          6           0       -5.341491    4.429902    0.057421
     68          6           0       -4.328056   -0.546656    0.120343
     69          6           0       -5.148978   -0.712185   -1.167090
     70          6           0       -6.033307   -1.964036   -1.155680
     71          6           0       -7.193016   -1.888258   -0.181943
     72          1           0       -3.904686    2.218649   -2.092133
     73          1           0       -4.190948    2.037503    2.185285
     74          1           0       -5.113797    4.377502   -2.086787
     75          1           0       -5.398171    4.198522    2.202396
     76          1           0       -5.864980    5.382883    0.062385
     77          1           0       -3.797906   -1.481044    0.327694
     78          1           0       -5.002588   -0.367264    0.966458
     79          1           0       -5.775363    0.170737   -1.331681
     80          1           0       -4.462626   -0.790456   -2.018910
     81          1           0       -6.472899   -2.127331   -2.150438
     82          1           0       -5.449582   -2.865394   -0.935940
     83          8           0       -7.660171   -0.878107    0.298644
     84          8           0       -7.692415   -3.124442    0.074506
     85          6           0       -8.821566   -3.154814    0.957642
     86          1           0       -9.657892   -2.587579    0.538456
     87          1           0       -9.087087   -4.208084    1.059750
     88          1           0       -8.562428   -2.729188    1.931122
 ---------------------------------------------------------------------

 The electronic state is 2-A.
 Alpha  occ. eigenvalues --  -19.13484 -19.07750 -10.25463 -10.18850 -10.14177
 Alpha  occ. eigenvalues --  -10.13715 -10.13691 -10.13672 -10.12418 -10.12014
 Alpha  occ. eigenvalues --  -10.11924 -10.11907 -10.11847 -10.11797 -10.11763
 Alpha  occ. eigenvalues --  -10.11761 -10.11640 -10.11592 -10.11585 -10.11418
 Alpha  occ. eigenvalues --  -10.11368 -10.11319 -10.11314 -10.11297 -10.11258
 Alpha  occ. eigenvalues --  -10.11254 -10.11242 -10.11238 -10.11227 -10.11206
 Alpha  occ. eigenvalues --  -10.11201 -10.11179 -10.11174 -10.11154 -10.11144
 Alpha  occ. eigenvalues --  -10.11104 -10.11080 -10.11063 -10.11047 -10.11044
 Alpha  occ. eigenvalues --  -10.11008 -10.10992 -10.10966 -10.10963 -10.10961
 Alpha  occ. eigenvalues --  -10.10954 -10.10922 -10.10916 -10.10914 -10.10892
 Alpha  occ. eigenvalues --  -10.10875 -10.10873 -10.10864 -10.10863 -10.10861
 Alpha  occ. eigenvalues --  -10.10856 -10.10855 -10.10845 -10.10750 -10.10722
 Alpha  occ. eigenvalues --  -10.10708 -10.10703 -10.10670 -10.10649 -10.10627
 Alpha  occ. eigenvalues --  -10.10621 -10.10531 -10.10512 -10.10484 -10.10453
 Alpha  occ. eigenvalues --  -10.10439 -10.10431 -10.10403 -10.10391  -1.04286
 Alpha  occ. eigenvalues --   -0.95454  -0.85023  -0.83615  -0.82681  -0.82577
 Alpha  occ. eigenvalues --   -0.80655  -0.79145  -0.78956  -0.78848  -0.78792
 Alpha  occ. eigenvalues --   -0.78095  -0.76070  -0.75268  -0.74917  -0.74444
 Alpha  occ. eigenvalues --   -0.73249  -0.71866  -0.71739  -0.71544  -0.70190
 Alpha  occ. eigenvalues --   -0.67895  -0.67290  -0.67233  -0.66909  -0.66833
 Alpha  occ. eigenvalues --   -0.66773  -0.66764  -0.65708  -0.65071  -0.65054
 Alpha  occ. eigenvalues --   -0.65004  -0.63549  -0.61514  -0.59820  -0.59748
 Alpha  occ. eigenvalues --   -0.59260  -0.59094  -0.58541  -0.58298  -0.58032
 Alpha  occ. eigenvalues --   -0.56486  -0.54447  -0.53966  -0.53938  -0.53246
 Alpha  occ. eigenvalues --   -0.52964  -0.51943  -0.50752  -0.50376  -0.50225
 Alpha  occ. eigenvalues --   -0.50090  -0.49921  -0.49876  -0.49724  -0.49634
 Alpha  occ. eigenvalues --   -0.47653  -0.46781  -0.44488  -0.43876  -0.43728
 Alpha  occ. eigenvalues --   -0.43231  -0.43195  -0.43183  -0.42956  -0.41758
 Alpha  occ. eigenvalues --   -0.41363  -0.41172  -0.41056  -0.40827  -0.40706
 Alpha  occ. eigenvalues --   -0.40015  -0.39337  -0.39243  -0.38817  -0.38673
 Alpha  occ. eigenvalues --   -0.37813  -0.37632  -0.36727  -0.36691  -0.36445
 Alpha  occ. eigenvalues --   -0.36119  -0.35186  -0.35009  -0.34814  -0.34641
 Alpha  occ. eigenvalues --   -0.34408  -0.34245  -0.33914  -0.33724  -0.33685
 Alpha  occ. eigenvalues --   -0.33524  -0.33132  -0.32548  -0.32202  -0.32053
 Alpha  occ. eigenvalues --   -0.31938  -0.31869  -0.31416  -0.31204  -0.30889
 Alpha  occ. eigenvalues --   -0.30836  -0.30383  -0.30244  -0.30138  -0.29899
 Alpha  occ. eigenvalues --   -0.29658  -0.29541  -0.29409  -0.29265  -0.29243
 Alpha  occ. eigenvalues --   -0.29215  -0.28625  -0.28421  -0.28235  -0.28028
 Alpha  occ. eigenvalues --   -0.27957  -0.27495  -0.27239  -0.27078  -0.25881
 Alpha  occ. eigenvalues --   -0.25247  -0.24712  -0.24481  -0.24259  -0.23924
 Alpha  occ. eigenvalues --   -0.23875  -0.23806  -0.23646  -0.23368  -0.23112
 Alpha  occ. eigenvalues --   -0.22971  -0.22673  -0.22519  -0.22247  -0.22017
 Alpha  occ. eigenvalues --   -0.21910  -0.21745  -0.21622  -0.21389  -0.21017
 Alpha  occ. eigenvalues --   -0.17790  -0.17773  -0.16294  -0.15449  -0.15382
 Alpha  occ. eigenvalues --   -0.15363  -0.15194  -0.14988  -0.14879  -0.14750
 Alpha  occ. eigenvalues --   -0.13972  -0.11479  -0.10602  -0.09935  -0.09786
 Alpha  occ. eigenvalues --   -0.09614  -0.03287
 Alpha virt. eigenvalues --   -0.00007   0.00778   0.03474   0.04342   0.04506
 Alpha virt. eigenvalues --    0.05934   0.06972   0.07253   0.07298   0.08079
 Alpha virt. eigenvalues --    0.08201   0.08439   0.08640   0.08774   0.08848

  Beta  occ. eigenvalues --  -19.13483 -19.07750 -10.25463 -10.18850 -10.14176
  Beta  occ. eigenvalues --  -10.13715 -10.13692 -10.13672 -10.12417 -10.12014
  Beta  occ. eigenvalues --  -10.11925 -10.11907 -10.11862 -10.11812 -10.11780
  Beta  occ. eigenvalues --  -10.11778 -10.11639 -10.11592 -10.11584 -10.11421
  Beta  occ. eigenvalues --  -10.11372 -10.11332 -10.11326 -10.11270 -10.11267
  Beta  occ. eigenvalues --  -10.11258 -10.11241 -10.11212 -10.11188 -10.11183
  Beta  occ. eigenvalues --  -10.11180 -10.11162 -10.11158 -10.11127 -10.11127
  Beta  occ. eigenvalues --  -10.11077 -10.11076 -10.11061 -10.11052 -10.11022
  Beta  occ. eigenvalues --  -10.11017 -10.11006 -10.10960 -10.10959 -10.10932
  Beta  occ. eigenvalues --  -10.10926 -10.10916 -10.10910 -10.10910 -10.10888
  Beta  occ. eigenvalues --  -10.10852 -10.10846 -10.10843 -10.10838 -10.10837
  Beta  occ. eigenvalues --  -10.10836 -10.10835 -10.10834 -10.10742 -10.10714
  Beta  occ. eigenvalues --  -10.10653 -10.10637 -10.10633 -10.10631 -10.10544
  Beta  occ. eigenvalues --  -10.10539 -10.10432 -10.10418 -10.10382 -10.10368
  Beta  occ. eigenvalues --  -10.10347 -10.10342 -10.10303 -10.10291  -1.04286
  Beta  occ. eigenvalues --   -0.95454  -0.84950  -0.83562  -0.82566  -0.82450
  Beta  occ. eigenvalues --   -0.80596  -0.79058  -0.78868  -0.78727  -0.78646
  Beta  occ. eigenvalues --   -0.78077  -0.76012  -0.75199  -0.74750  -0.74357
  Beta  occ. eigenvalues --   -0.73215  -0.71795  -0.71633  -0.71515  -0.70125
  Beta  occ. eigenvalues --   -0.67880  -0.67262  -0.67217  -0.66829  -0.66781
  Beta  occ. eigenvalues --   -0.66670  -0.66650  -0.65600  -0.65000  -0.64957
  Beta  occ. eigenvalues --   -0.64934  -0.63528  -0.61446  -0.59753  -0.59708
  Beta  occ. eigenvalues --   -0.59162  -0.58982  -0.58330  -0.58257  -0.57991
  Beta  occ. eigenvalues --   -0.56444  -0.54428  -0.53925  -0.53878  -0.53232
  Beta  occ. eigenvalues --   -0.52950  -0.51915  -0.50674  -0.50266  -0.50051
  Beta  occ. eigenvalues --   -0.50050  -0.49848  -0.49823  -0.49687  -0.49616
  Beta  occ. eigenvalues --   -0.47624  -0.46766  -0.44471  -0.43834  -0.43676
  Beta  occ. eigenvalues --   -0.43167  -0.43135  -0.43107  -0.42931  -0.41702
  Beta  occ. eigenvalues --   -0.41348  -0.41058  -0.40996  -0.40784  -0.40660
  Beta  occ. eigenvalues --   -0.39944  -0.39299  -0.39209  -0.38789  -0.38651
  Beta  occ. eigenvalues --   -0.37784  -0.37619  -0.36702  -0.36660  -0.36427
  Beta  occ. eigenvalues --   -0.35952  -0.35140  -0.34937  -0.34791  -0.34585
  Beta  occ. eigenvalues --   -0.34345  -0.34174  -0.33837  -0.33516  -0.33425
  Beta  occ. eigenvalues --   -0.33402  -0.33072  -0.32486  -0.32156  -0.32010
  Beta  occ. eigenvalues --   -0.31888  -0.31834  -0.31359  -0.31172  -0.30833
  Beta  occ. eigenvalues --   -0.30803  -0.30333  -0.30199  -0.30070  -0.29839
  Beta  occ. eigenvalues --   -0.29551  -0.29407  -0.29322  -0.29109  -0.28989
  Beta  occ. eigenvalues --   -0.28876  -0.28555  -0.28371  -0.28180  -0.27965
  Beta  occ. eigenvalues --   -0.27915  -0.27482  -0.27214  -0.27076  -0.25858
  Beta  occ. eigenvalues --   -0.25131  -0.24635  -0.24454  -0.24233  -0.23780
  Beta  occ. eigenvalues --   -0.23605  -0.23571  -0.23497  -0.23293  -0.23037
  Beta  occ. eigenvalues --   -0.22940  -0.22608  -0.22446  -0.22084  -0.21757
  Beta  occ. eigenvalues --   -0.21685  -0.21551  -0.21474  -0.21362  -0.20931
  Beta  occ. eigenvalues --   -0.17783  -0.17673  -0.16170  -0.15291  -0.15028
  Beta  occ. eigenvalues --   -0.14944  -0.14823  -0.14623  -0.14533  -0.14499
  Beta  occ. eigenvalues --   -0.13625  -0.11124  -0.10310  -0.09698  -0.09485
  Beta  occ. eigenvalues --   -0.09428
  Beta virt. eigenvalues --   -0.00108   0.00122   0.00950   0.04346   0.04494
  Beta virt. eigenvalues --    0.05186   0.06018   0.06986   0.07294   0.07321
  Beta virt. eigenvalues --    0.08430   0.08438   0.08584   0.08955   0.09090

 Mulliken atomic charges:
              1
     1  C    0.030472
     2  C   -0.014359
     3  C   -0.017453
     4  C    0.035858
     5  C   -0.089533
     6  C   -0.017599
     7  C   -0.033226
     8  C   -0.034814
     9  C   -0.033409
    10  C   -0.104489
    11  C   -0.019517
    12  C   -0.014998
    13  C   -0.012209
    14  C   -0.017748
    15  C   -0.017372
    16  C   -0.011860
    17  C   -0.032036
    18  C   -0.018370
    19  C    0.040286
    20  C    0.039285
    21  C   -0.014802
    22  C   -0.020238
    23  C   -0.023511
    24  C   -0.016908
    25  C   -0.017985
    26  C   -0.022489
    27  C   -0.019776
    28  C   -0.022599
    29  C   -0.014070
    30  C   -0.015235
    31  C   -0.017720
    32  C   -0.025109
    33  C   -0.017792
    34  C   -0.015179
    35  C   -0.015082
    36  C   -0.017213
    37  C   -0.017519
    38  C   -0.024078
    39  C   -0.032581
    40  C   -0.034069
    41  C   -0.016395
    42  C   -0.015386
    43  C   -0.013288
    44  C   -0.016939
    45  C   -0.016438
    46  C   -0.012815
    47  C   -0.018057
    48  C   -0.015230
    49  C   -0.011559
    50  C   -0.012329
    51  C   -0.023373
    52  C   -0.017060
    53  C   -0.013951
    54  C   -0.016214
    55  C   -0.022127
    56  C   -0.017802
    57  C   -0.013336
    58  C   -0.014425
    59  C   -0.012904
    60  C   -0.016871
    61  C    0.022565
    62  C    0.138401
    63  C   -0.165686
    64  C   -0.159035
    65  C   -0.134322
    66  C   -0.131921
    67  C   -0.125657
    68  C   -0.284947
    69  C   -0.260006
    70  C   -0.365186
    71  C    0.621187
    72  H    0.135997
    73  H    0.133686
    74  H    0.117401
    75  H    0.117401
    76  H    0.112546
    77  H    0.152333
    78  H    0.152924
    79  H    0.158998
    80  H    0.146208
    81  H    0.166631
    82  H    0.174796
    83  O   -0.480521
    84  O   -0.452341
    85  C   -0.213220
    86  H    0.161076
    87  H    0.155686
    88  H    0.168551
 Sum of Mulliken atomic charges =  -1.00000

 Dipole moment (field-independent basis, Debye):
    X=             -8.0998    Y=             -0.6841    Z=             -0.2924  Tot=              8.1339
 Quadrupole moment (field-independent basis, Debye-Ang):
   XX=           -451.6613   YY=           -436.6816   ZZ=           -434.3836
   XY=             10.5621   XZ=              0.1331   YZ=             -1.4334

 Normal termination of Gaussian 09 at Wed Apr 13 08:22:52 2011.
